<VTKFile type="UnstructuredGrid"  version="0.1"   > 
<UnstructuredGrid> 
<Piece  NumberOfPoints="  484" NumberOfCells=" 441"> 
<Points> 
<DataArray  type="Float64"  NumberOfComponents="3"  format="ascii" > 
0.000000 0.000000 0.0 
0.476190 0.000000 0.0 
0.952381 0.000000 0.0 
1.428571 0.000000 0.0 
1.904762 0.000000 0.0 
2.380952 0.000000 0.0 
2.857143 0.000000 0.0 
3.333333 0.000000 0.0 
3.809524 0.000000 0.0 
4.285714 0.000000 0.0 
4.761905 0.000000 0.0 
5.238095 0.000000 0.0 
5.714286 0.000000 0.0 
6.190476 0.000000 0.0 
6.666667 0.000000 0.0 
7.142857 0.000000 0.0 
7.619048 0.000000 0.0 
8.095238 0.000000 0.0 
8.571429 0.000000 0.0 
9.047619 0.000000 0.0 
9.523810 0.000000 0.0 
10.000000 0.000000 0.0 
0.000000 0.476190 0.0 
0.476190 0.476190 0.0 
0.952381 0.476190 0.0 
1.428571 0.476190 0.0 
1.904762 0.476190 0.0 
2.380952 0.476190 0.0 
2.857143 0.476190 0.0 
3.333333 0.476190 0.0 
3.809524 0.476190 0.0 
4.285714 0.476190 0.0 
4.761905 0.476190 0.0 
5.238095 0.476190 0.0 
5.714286 0.476190 0.0 
6.190476 0.476190 0.0 
6.666667 0.476190 0.0 
7.142857 0.476190 0.0 
7.619048 0.476190 0.0 
8.095238 0.476190 0.0 
8.571429 0.476190 0.0 
9.047619 0.476190 0.0 
9.523810 0.476190 0.0 
10.000000 0.476190 0.0 
0.000000 0.952381 0.0 
0.476190 0.952381 0.0 
0.952381 0.952381 0.0 
1.428571 0.952381 0.0 
1.904762 0.952381 0.0 
2.380952 0.952381 0.0 
2.857143 0.952381 0.0 
3.333333 0.952381 0.0 
3.809524 0.952381 0.0 
4.285714 0.952381 0.0 
4.761905 0.952381 0.0 
5.238095 0.952381 0.0 
5.714286 0.952381 0.0 
6.190476 0.952381 0.0 
6.666667 0.952381 0.0 
7.142857 0.952381 0.0 
7.619048 0.952381 0.0 
8.095238 0.952381 0.0 
8.571429 0.952381 0.0 
9.047619 0.952381 0.0 
9.523810 0.952381 0.0 
10.000000 0.952381 0.0 
0.000000 1.428571 0.0 
0.476190 1.428571 0.0 
0.952381 1.428571 0.0 
1.428571 1.428571 0.0 
1.904762 1.428571 0.0 
2.380952 1.428571 0.0 
2.857143 1.428571 0.0 
3.333333 1.428571 0.0 
3.809524 1.428571 0.0 
4.285714 1.428571 0.0 
4.761905 1.428571 0.0 
5.238095 1.428571 0.0 
5.714286 1.428571 0.0 
6.190476 1.428571 0.0 
6.666667 1.428571 0.0 
7.142857 1.428571 0.0 
7.619048 1.428571 0.0 
8.095238 1.428571 0.0 
8.571429 1.428571 0.0 
9.047619 1.428571 0.0 
9.523810 1.428571 0.0 
10.000000 1.428571 0.0 
0.000000 1.904762 0.0 
0.476190 1.904762 0.0 
0.952381 1.904762 0.0 
1.428571 1.904762 0.0 
1.904762 1.904762 0.0 
2.380952 1.904762 0.0 
2.857143 1.904762 0.0 
3.333333 1.904762 0.0 
3.809524 1.904762 0.0 
4.285714 1.904762 0.0 
4.761905 1.904762 0.0 
5.238095 1.904762 0.0 
5.714286 1.904762 0.0 
6.190476 1.904762 0.0 
6.666667 1.904762 0.0 
7.142857 1.904762 0.0 
7.619048 1.904762 0.0 
8.095238 1.904762 0.0 
8.571429 1.904762 0.0 
9.047619 1.904762 0.0 
9.523810 1.904762 0.0 
10.000000 1.904762 0.0 
0.000000 2.380952 0.0 
0.476190 2.380952 0.0 
0.952381 2.380952 0.0 
1.428571 2.380952 0.0 
1.904762 2.380952 0.0 
2.380952 2.380952 0.0 
2.857143 2.380952 0.0 
3.333333 2.380952 0.0 
3.809524 2.380952 0.0 
4.285714 2.380952 0.0 
4.761905 2.380952 0.0 
5.238095 2.380952 0.0 
5.714286 2.380952 0.0 
6.190476 2.380952 0.0 
6.666667 2.380952 0.0 
7.142857 2.380952 0.0 
7.619048 2.380952 0.0 
8.095238 2.380952 0.0 
8.571429 2.380952 0.0 
9.047619 2.380952 0.0 
9.523810 2.380952 0.0 
10.000000 2.380952 0.0 
0.000000 2.857143 0.0 
0.476190 2.857143 0.0 
0.952381 2.857143 0.0 
1.428571 2.857143 0.0 
1.904762 2.857143 0.0 
2.380952 2.857143 0.0 
2.857143 2.857143 0.0 
3.333333 2.857143 0.0 
3.809524 2.857143 0.0 
4.285714 2.857143 0.0 
4.761905 2.857143 0.0 
5.238095 2.857143 0.0 
5.714286 2.857143 0.0 
6.190476 2.857143 0.0 
6.666667 2.857143 0.0 
7.142857 2.857143 0.0 
7.619048 2.857143 0.0 
8.095238 2.857143 0.0 
8.571429 2.857143 0.0 
9.047619 2.857143 0.0 
9.523810 2.857143 0.0 
10.000000 2.857143 0.0 
0.000000 3.333333 0.0 
0.476190 3.333333 0.0 
0.952381 3.333333 0.0 
1.428571 3.333333 0.0 
1.904762 3.333333 0.0 
2.380952 3.333333 0.0 
2.857143 3.333333 0.0 
3.333333 3.333333 0.0 
3.809524 3.333333 0.0 
4.285714 3.333333 0.0 
4.761905 3.333333 0.0 
5.238095 3.333333 0.0 
5.714286 3.333333 0.0 
6.190476 3.333333 0.0 
6.666667 3.333333 0.0 
7.142857 3.333333 0.0 
7.619048 3.333333 0.0 
8.095238 3.333333 0.0 
8.571429 3.333333 0.0 
9.047619 3.333333 0.0 
9.523810 3.333333 0.0 
10.000000 3.333333 0.0 
0.000000 3.809524 0.0 
0.476190 3.809524 0.0 
0.952381 3.809524 0.0 
1.428571 3.809524 0.0 
1.904762 3.809524 0.0 
2.380952 3.809524 0.0 
2.857143 3.809524 0.0 
3.333333 3.809524 0.0 
3.809524 3.809524 0.0 
4.285714 3.809524 0.0 
4.761905 3.809524 0.0 
5.238095 3.809524 0.0 
5.714286 3.809524 0.0 
6.190476 3.809524 0.0 
6.666667 3.809524 0.0 
7.142857 3.809524 0.0 
7.619048 3.809524 0.0 
8.095238 3.809524 0.0 
8.571429 3.809524 0.0 
9.047619 3.809524 0.0 
9.523810 3.809524 0.0 
10.000000 3.809524 0.0 
0.000000 4.285714 0.0 
0.476190 4.285714 0.0 
0.952381 4.285714 0.0 
1.428571 4.285714 0.0 
1.904762 4.285714 0.0 
2.380952 4.285714 0.0 
2.857143 4.285714 0.0 
3.333333 4.285714 0.0 
3.809524 4.285714 0.0 
4.285714 4.285714 0.0 
4.761905 4.285714 0.0 
5.238095 4.285714 0.0 
5.714286 4.285714 0.0 
6.190476 4.285714 0.0 
6.666667 4.285714 0.0 
7.142857 4.285714 0.0 
7.619048 4.285714 0.0 
8.095238 4.285714 0.0 
8.571429 4.285714 0.0 
9.047619 4.285714 0.0 
9.523810 4.285714 0.0 
10.000000 4.285714 0.0 
0.000000 4.761905 0.0 
0.476190 4.761905 0.0 
0.952381 4.761905 0.0 
1.428571 4.761905 0.0 
1.904762 4.761905 0.0 
2.380952 4.761905 0.0 
2.857143 4.761905 0.0 
3.333333 4.761905 0.0 
3.809524 4.761905 0.0 
4.285714 4.761905 0.0 
4.761905 4.761905 0.0 
5.238095 4.761905 0.0 
5.714286 4.761905 0.0 
6.190476 4.761905 0.0 
6.666667 4.761905 0.0 
7.142857 4.761905 0.0 
7.619048 4.761905 0.0 
8.095238 4.761905 0.0 
8.571429 4.761905 0.0 
9.047619 4.761905 0.0 
9.523810 4.761905 0.0 
10.000000 4.761905 0.0 
0.000000 5.238095 0.0 
0.476190 5.238095 0.0 
0.952381 5.238095 0.0 
1.428571 5.238095 0.0 
1.904762 5.238095 0.0 
2.380952 5.238095 0.0 
2.857143 5.238095 0.0 
3.333333 5.238095 0.0 
3.809524 5.238095 0.0 
4.285714 5.238095 0.0 
4.761905 5.238095 0.0 
5.238095 5.238095 0.0 
5.714286 5.238095 0.0 
6.190476 5.238095 0.0 
6.666667 5.238095 0.0 
7.142857 5.238095 0.0 
7.619048 5.238095 0.0 
8.095238 5.238095 0.0 
8.571429 5.238095 0.0 
9.047619 5.238095 0.0 
9.523810 5.238095 0.0 
10.000000 5.238095 0.0 
0.000000 5.714286 0.0 
0.476190 5.714286 0.0 
0.952381 5.714286 0.0 
1.428571 5.714286 0.0 
1.904762 5.714286 0.0 
2.380952 5.714286 0.0 
2.857143 5.714286 0.0 
3.333333 5.714286 0.0 
3.809524 5.714286 0.0 
4.285714 5.714286 0.0 
4.761905 5.714286 0.0 
5.238095 5.714286 0.0 
5.714286 5.714286 0.0 
6.190476 5.714286 0.0 
6.666667 5.714286 0.0 
7.142857 5.714286 0.0 
7.619048 5.714286 0.0 
8.095238 5.714286 0.0 
8.571429 5.714286 0.0 
9.047619 5.714286 0.0 
9.523810 5.714286 0.0 
10.000000 5.714286 0.0 
0.000000 6.190476 0.0 
0.476190 6.190476 0.0 
0.952381 6.190476 0.0 
1.428571 6.190476 0.0 
1.904762 6.190476 0.0 
2.380952 6.190476 0.0 
2.857143 6.190476 0.0 
3.333333 6.190476 0.0 
3.809524 6.190476 0.0 
4.285714 6.190476 0.0 
4.761905 6.190476 0.0 
5.238095 6.190476 0.0 
5.714286 6.190476 0.0 
6.190476 6.190476 0.0 
6.666667 6.190476 0.0 
7.142857 6.190476 0.0 
7.619048 6.190476 0.0 
8.095238 6.190476 0.0 
8.571429 6.190476 0.0 
9.047619 6.190476 0.0 
9.523810 6.190476 0.0 
10.000000 6.190476 0.0 
0.000000 6.666667 0.0 
0.476190 6.666667 0.0 
0.952381 6.666667 0.0 
1.428571 6.666667 0.0 
1.904762 6.666667 0.0 
2.380952 6.666667 0.0 
2.857143 6.666667 0.0 
3.333333 6.666667 0.0 
3.809524 6.666667 0.0 
4.285714 6.666667 0.0 
4.761905 6.666667 0.0 
5.238095 6.666667 0.0 
5.714286 6.666667 0.0 
6.190476 6.666667 0.0 
6.666667 6.666667 0.0 
7.142857 6.666667 0.0 
7.619048 6.666667 0.0 
8.095238 6.666667 0.0 
8.571429 6.666667 0.0 
9.047619 6.666667 0.0 
9.523810 6.666667 0.0 
10.000000 6.666667 0.0 
0.000000 7.142857 0.0 
0.476190 7.142857 0.0 
0.952381 7.142857 0.0 
1.428571 7.142857 0.0 
1.904762 7.142857 0.0 
2.380952 7.142857 0.0 
2.857143 7.142857 0.0 
3.333333 7.142857 0.0 
3.809524 7.142857 0.0 
4.285714 7.142857 0.0 
4.761905 7.142857 0.0 
5.238095 7.142857 0.0 
5.714286 7.142857 0.0 
6.190476 7.142857 0.0 
6.666667 7.142857 0.0 
7.142857 7.142857 0.0 
7.619048 7.142857 0.0 
8.095238 7.142857 0.0 
8.571429 7.142857 0.0 
9.047619 7.142857 0.0 
9.523810 7.142857 0.0 
10.000000 7.142857 0.0 
0.000000 7.619048 0.0 
0.476190 7.619048 0.0 
0.952381 7.619048 0.0 
1.428571 7.619048 0.0 
1.904762 7.619048 0.0 
2.380952 7.619048 0.0 
2.857143 7.619048 0.0 
3.333333 7.619048 0.0 
3.809524 7.619048 0.0 
4.285714 7.619048 0.0 
4.761905 7.619048 0.0 
5.238095 7.619048 0.0 
5.714286 7.619048 0.0 
6.190476 7.619048 0.0 
6.666667 7.619048 0.0 
7.142857 7.619048 0.0 
7.619048 7.619048 0.0 
8.095238 7.619048 0.0 
8.571429 7.619048 0.0 
9.047619 7.619048 0.0 
9.523810 7.619048 0.0 
10.000000 7.619048 0.0 
0.000000 8.095238 0.0 
0.476190 8.095238 0.0 
0.952381 8.095238 0.0 
1.428571 8.095238 0.0 
1.904762 8.095238 0.0 
2.380952 8.095238 0.0 
2.857143 8.095238 0.0 
3.333333 8.095238 0.0 
3.809524 8.095238 0.0 
4.285714 8.095238 0.0 
4.761905 8.095238 0.0 
5.238095 8.095238 0.0 
5.714286 8.095238 0.0 
6.190476 8.095238 0.0 
6.666667 8.095238 0.0 
7.142857 8.095238 0.0 
7.619048 8.095238 0.0 
8.095238 8.095238 0.0 
8.571429 8.095238 0.0 
9.047619 8.095238 0.0 
9.523810 8.095238 0.0 
10.000000 8.095238 0.0 
0.000000 8.571429 0.0 
0.476190 8.571429 0.0 
0.952381 8.571429 0.0 
1.428571 8.571429 0.0 
1.904762 8.571429 0.0 
2.380952 8.571429 0.0 
2.857143 8.571429 0.0 
3.333333 8.571429 0.0 
3.809524 8.571429 0.0 
4.285714 8.571429 0.0 
4.761905 8.571429 0.0 
5.238095 8.571429 0.0 
5.714286 8.571429 0.0 
6.190476 8.571429 0.0 
6.666667 8.571429 0.0 
7.142857 8.571429 0.0 
7.619048 8.571429 0.0 
8.095238 8.571429 0.0 
8.571429 8.571429 0.0 
9.047619 8.571429 0.0 
9.523810 8.571429 0.0 
10.000000 8.571429 0.0 
0.000000 9.047619 0.0 
0.476190 9.047619 0.0 
0.952381 9.047619 0.0 
1.428571 9.047619 0.0 
1.904762 9.047619 0.0 
2.380952 9.047619 0.0 
[...]
<PointData  Vectors="sigma"> 
<DataArray  type="Float64"  Name="sigma" NumberOfComponents="4" format="ascii"> 
0.0802258   0.0449319   0.0543738   0.117132   
0.0820579   0.0539629   0.0597104   0.126148   
0.0831364   0.064769   0.0650578   0.135719   
0.083261   0.0775249   0.0701051   0.145712   
0.0822709   0.0922952   0.0744236   0.155918   
0.0801011   0.108957   0.0774797   0.166041   
0.0768454   0.127119   0.0786867   0.175701   
0.0728053   0.146076   0.0775067   0.18446   
0.0684915   0.164825   0.0735893   0.191873   
0.0645522   0.182187   0.0669058   0.197554   
0.0616342   0.197017   0.0578186   0.201247   
0.0602207   0.208437   0.0470377   0.202874   
0.0605159   0.216004   0.03547   0.202541   
0.0624233   0.219754   0.0240201   0.200504   
0.0656151   0.22011   0.0134221   0.197109   
0.0696487   0.217727   0.00415307   0.192726   
0.074078   0.213328   -0.00356904   0.187701   
0.0785271   0.207588   -0.00973272   0.182325   
0.0827227   0.201067   -0.0144609   0.176821   
0.0864933   0.194192   -0.0179456   0.171352   
0.0897517   0.187267   -0.0203999   0.166028   
0.092473   0.180493   -0.0220285   0.160917   
0.0818502   0.0394111   0.0518076   0.114363   
0.0845878   0.0482023   0.057776   0.124159   
0.0865878   0.0590182   0.063996   0.134747   
0.0875634   0.0721684   0.0701533   0.146016   
0.0872401   0.0878661   0.0757622   0.157752   
0.0854328   0.106114   0.0801547   0.16961   
0.0821487   0.126565   0.0825268   0.181113   
0.0776892   0.148406   0.0820694   0.191668   
0.0726906   0.170337   0.078186   0.200639   
0.0680416   0.190723   0.0707335   0.207455   
0.0646642   0.207926   0.0601693   0.211732   
0.0632379   0.220712   0.0474974   0.213362   
0.064004   0.228529   0.0340105   0.212521   
0.0667461   0.231555   0.0209512   0.209605   
0.0709327   0.230518   0.00924931   0.205123   
0.0759202   0.226408   -0.000579001   0.199591   
0.0811216   0.220227   -0.00838955   0.19346   
0.0860943   0.212835   -0.0142965   0.187084   
0.0905586   0.204887   -0.0185526   0.180714   
0.0943739   0.196839   -0.0214578   0.174519   
0.0975002   0.188984   -0.0233034   0.168596   
0.0999614   0.181495   -0.024344   0.162998   
0.0827271   0.0334201   0.0482929   0.11042   
0.0865498   0.041714   0.0548063   0.120962   
0.0897346   0.0522484   0.0618832   0.132598   
0.0918992   0.0655094   0.069248   0.145267   
0.0926195   0.0819343   0.0763925   0.158778   
0.0915202   0.101759   0.0825178   0.172758   
0.0884317   0.12479   0.0865431   0.186618   
0.0835855   0.150159   0.0872529   0.199555   
0.0777509   0.176189   0.083628   0.210642   
0.0721672   0.200559   0.0752852   0.219002   
0.0681968   0.220844   0.062797   0.224036   
0.0668301   0.235237   0.0476366   0.225587   
0.0683356   0.243063   0.0317134   0.223957   
0.0722647   0.244804   0.0167667   0.219782   
0.0777488   0.241709   0.00395239   0.213828   
0.0838596   0.235276   -0.006242   0.206819   
0.0898512   0.226873   -0.0138468   0.199336   
0.0952424   0.217555   -0.0191874   0.191795   
0.0997925   0.208046   -0.0226994   0.184461   
0.103435   0.198791   -0.0248131   0.177487   
0.106207   0.190035   -0.0258999   0.170946   
0.108202   0.181892   -0.0262566   0.164862   
0.0824671   0.0271102   0.0437085   0.10503   
0.0875231   0.0346051   0.0505838   0.116212   
0.0921646   0.0444743   0.0583942   0.128852   
0.0959279   0.0574126   0.0669683   0.142987   
0.0982153   0.0741688   0.0758523   0.158504   
0.0983762   0.09537   0.0841679   0.175054   
0.0959148   0.121186   0.090521   0.191949   
0.0908365   0.150852   0.0931049   0.208112   
0.0839981   0.182265   0.0901669   0.222163   
0.0771497   0.212053   0.0808159   0.232707   
0.0723917   0.23646   0.0657421   0.238751   
0.0712325   0.252723   0.0472087   0.240056   
0.0739225   0.260062   0.0281579   0.237173   
0.0795516   0.259599   0.0110621   0.231162   
0.0866937   0.253489   -0.00271659   0.223201   
0.0940413   0.243983   -0.0128853   0.214302   
0.100713   0.232886   -0.019824   0.205191   
0.106266   0.221415   -0.0241848   0.196323   
0.110582   0.210288   -0.0266353   0.187946   
0.113724   0.199871   -0.0277421   0.180167   
0.115843   0.19031   -0.0279419   0.173014   
0.117117   0.181628   -0.0275522   0.166465   
0.0805759   0.0207269   0.0380028   0.0979011   
0.0869231   0.0271069   0.0449351   0.109506   
0.0932391   0.0358523   0.053192   0.122981   
0.0990361   0.0478663   0.0627935   0.13852   
0.103566   0.0642802   0.073473   0.15619   
0.105833   0.0863143   0.0844211   0.175774   
0.1048   0.114859   0.0939871   0.196568   
0.0999248   0.149654   0.0995697   0.217185   
0.0919465   0.188264   0.0981448   0.235552   
0.0833338   0.225709   0.0877228   0.249331   
0.0774924   0.255843   0.0690346   0.256772   
0.0768497   0.274202   0.0457652   0.257495   
0.0814823   0.28004   0.0226819   0.252561   
0.0895392   0.27586   0.0033151   0.243821   
0.0986919   0.265399   -0.010956   0.233118   
0.107203   0.251951   -0.0203957   0.221833   
0.114189   0.237743   -0.0260059   0.210813   
0.119411   0.22402   -0.0288867   0.200491   
0.122987   0.211355   -0.0299542   0.191035   
0.125179   0.199934   -0.0298802   0.182467   
0.126276   0.189747   -0.029124   0.174739   
0.126537   0.180692   -0.0279865   0.16777   
0.0764756   0.014615   0.0312557   0.0887422   
0.0839948   0.0196085   0.0378127   0.100409   
0.0920329   0.0267578   0.0460193   0.114354   
0.100198   0.0371104   0.0561688   0.131008   
0.107716   0.0521748   0.0683648   0.150752   
0.113285   0.0739423   0.0821637   0.173715   
0.115105   0.104549   0.0959575   0.199422   
0.111498   0.145105   0.106289   0.226275   
0.102451   0.193458   0.108004   0.251191   
0.0912957   0.242252   0.0966636   0.270066   
0.0838958   0.28075   0.0726573   0.27954   
0.0844438   0.301187   0.0424524   0.278958   
0.0923379   0.303441   0.0142501   0.270542   
0.103764   0.293085   -0.0070521   0.257688   
0.115047   0.276536   -0.0207318   0.243276   
0.124197   0.258315   -0.0283115   0.229072   
0.130686   0.240807   -0.0317509   0.215919   
0.134748   0.224978   -0.0326476   0.204094   
0.136874   0.21105   -0.0320947   0.193596   
0.13756   0.198916   -0.0307774   0.184308   
0.137222   0.188361   -0.0291037   0.176078   
0.136177   0.179147   -0.0273076   0.168758   
0.0695716   0.00919224   0.0237527   0.077316   
0.0778662   0.012656   0.0294154   0.0885079   
0.0873306   0.0178448   0.0368679   0.102296   
0.0978451   0.0258004   0.046698   0.119403   
0.10889   0.0382416   0.059538   0.140676   
0.119168   0.0579037   0.0757417   0.166925   
0.12616   0.0886895   0.0944972   0.19845   
0.12625   0.13467   0.112077   0.234002   
0.117002   0.196085   0.120197   0.26933   
0.102089   0.26274   0.108815   0.296907   
0.0923135   0.314301   0.0764199   0.309537   
0.0956242   0.335868   0.0355613   0.305987   
0.109059   0.330204   0.00133519   0.291414   
0.124707   0.309867   -0.0203623   0.272343   
0.137401   0.285355   -0.0313632   0.25308   
0.145748   0.261955   -0.0355316   0.235523   
0.150271   0.24145   -0.0359593   0.220172   
0.151977   0.22403   -0.034555   0.206933   
0.151782   0.209336   -0.0323696   0.195523   
0.150368   0.1969   -0.0299455   0.185642   
0.148208   0.186287   -0.0275478   0.17702   
0.145616   0.177143   -0.0252959   0.169436   
0.0593835   0.00487577   0.016044   0.0635048   
0.067705   0.00688041   0.0203202   0.0735133   
0.0777716   0.0100195   0.026226   0.0862147   
0.0898907   0.0151221   0.034532   0.102601   
0.104177   0.0237482   0.0463643   0.124064   
0.120073   0.0388779   0.0631853   0.15244   
0.135272   0.0660546   0.0861714   0.189744   
0.144098   0.114237   0.113592   0.236775   
0.138254   0.191763   0.134569   0.289312   
0.1179   0.288635   0.126513   0.333463   
0.104222   0.362639   0.0795024   0.351477   
0.114295   0.381022   0.0215291   0.340709   
0.136766   0.358471   -0.0177835   0.314847   
0.155968   0.323167   -0.0356746   0.286665   
0.167207   0.289679   -0.0407578   0.261571   
0.17184   0.261804   -0.0400001   0.240587   
0.172224   0.239353   -0.0370465   0.223262   
0.170162   0.221247   -0.033521   0.208874   
0.166795   0.206454   -0.0300807   0.196781   
0.1628   0.194169   -0.0269583   0.186481   
0.158565   0.183802   -0.0242091   0.177594   
0.154309   0.174924   -0.0218183   0.16984   
0.045733   0.00195616   0.00894463   0.0473908   
0.0530077   0.00282016   0.0115535   0.0553961   
0.0622513   0.00422766   0.0153126   0.0658282   
0.0741726   0.00664323   0.0209181   0.0797851   
0.0897068   0.0110519   0.029595   0.0990233   
0.109864   0.0196911   0.0435253   0.126403   
0.134808   0.0379597   0.0663886   0.166491   
0.160369   0.0790122   0.102576   0.225511   
0.170179   0.169304   0.147084   0.306127   
0.144243   0.321088   0.155058   0.386934   
0.123557   0.439686   0.0784257   0.415591   
0.151446   0.437615   -0.0067436   0.385102   
0.184903   0.381533   -0.0424448   0.338548   
0.200928   0.328056   -0.0483678   0.298488   
0.203961   0.287569   -0.0445484   0.267576   
0.200559   0.257633   -0.0387437   0.243786   
0.194476   0.234967   -0.0332502   0.225059   
0.187516   0.217252   -0.028584   0.209937   
0.180495   0.202993   -0.0247435   0.197439   
0.173766   0.191225   -0.0216016   0.186904   
0.167466   0.18131   -0.0190217   0.177877   
0.161628   0.172811   -0.0168871   0.170034   
0.0289384   0.000451999   0.00342711   0.0293221   
0.0339635   0.000662135   0.00449239   0.0345256   
0.0405837   0.00101492   0.00607733   0.0414449   
0.049575   0.0016469   0.00855105   0.0509717   
0.0622358   0.00287608   0.0126489   0.0646727   
0.0808175   0.00553625   0.0199649   0.0855013   
0.109224   0.0121661   0.034294   0.119487   
0.153008   0.0320322   0.0653559   0.179863   
0.207965   0.104631   0.134293   0.294179   
0.200273   0.351259   0.207967   0.472118   
0.167383   0.58257   0.0548312   0.528121   
0.23977   0.490025   -0.0554719   0.435146   
0.263324   0.385286   -0.0595126   0.356308   
0.256282   0.32097   -0.0473107   0.305218   
0.241777   0.279794   -0.0367201   0.270441   
0.226884   0.251146   -0.0290206   0.245145   
0.213364   0.229858   -0.0234867   0.225767   
0.201486   0.21326   -0.0194304   0.210333   
0.191115   0.199848   -0.0163814   0.197675   
0.182035   0.188716   -0.0140336   0.187052   
0.174038   0.17928   -0.0121861   0.177974   
0.166947   0.171147   -0.0107043   0.170099   
0.00991573   1.73335e-05   0.000393252   0.00993046   
0.0117168   2.56106e-05   0.000519596   0.0117385   
0.0141357   3.97364e-05   0.00071086   0.0141694   
0.0175145   6.56527e-05   0.00101701   0.0175703   
0.0224826   0.000117947   0.00154426   0.0225828   
0.030314   0.000238214   0.00254786   0.0305164   
0.0439531   0.000573088   0.00475675   0.0444398   
0.0716374   0.00183994   0.010871   0.0731986   
0.143991   0.0103057   0.0363506   0.152708   
0.367641   0.205904   0.249172   0.536766   
0.423764   0.827125   -0.100947   0.737412   
0.416133   0.478878   -0.0620582   0.46343   
0.347076   0.366837   -0.0330583   0.361924   
0.300149   0.309022   -0.0208249   0.30681   
0.267399   0.272223   -0.0145597   0.271019   
0.24318   0.246133   -0.0108876   0.245396   
0.224421   0.226378   -0.00852831   0.225889   
0.209368   0.210743   -0.00690993   0.210399   
0.196956   0.197965   -0.0057442   0.197713   
0.186501   0.187267   -0.0048722   0.187076   
0.177541   0.178138   -0.00420004   0.177989   
0.169752   0.170229   -0.00366912   0.170109   
0.00991573   1.73335e-05   -0.000393252   0.00993046   
0.0117168   2.56106e-05   -0.000519596   0.0117385   
0.0141357   3.97364e-05   -0.00071086   0.0141694   
0.0175145   6.56527e-05   -0.00101701   0.0175703   
0.0224826   0.000117947   -0.00154426   0.0225828   
0.030314   0.000238214   -0.00254786   0.0305164   
0.0439531   0.000573088   -0.00475675   0.0444398   
0.0716374   0.00183994   -0.010871   0.0731986   
0.143991   0.0103057   -0.0363506   0.152708   
0.367641   0.205904   -0.249172   0.536766   
0.423764   0.827125   0.100947   0.737412   
0.416133   0.478878   0.0620582   0.46343   
0.347076   0.366837   0.0330583   0.361924   
0.300149   0.309022   0.0208249   0.30681   
0.267399   0.272223   0.0145597   0.271019   
0.24318   0.246133   0.0108876   0.245396   
0.224421   0.226378   0.00852831   0.225889   
0.209368   0.210743   0.00690993   0.210399   
0.196956   0.197965   0.0057442   0.197713   
0.186501   0.187267   0.0048722   0.187076   
0.177541   0.178138   0.00420004   0.177989   
0.169752   0.170229   0.00366912   0.170109   
0.0289384   0.000451999   -0.00342711   0.0293221   
0.0339635   0.000662135   -0.00449239   0.0345256   
0.0405837   0.00101492   -0.00607733   0.0414449   
0.049575   0.0016469   -0.00855105   0.0509717   
0.0622358   0.00287608   -0.0126489   0.0646727   
0.0808175   0.00553625   -0.0199649   0.0855013   
0.109224   0.0121661   -0.034294   0.119487   
0.153008   0.0320322   -0.0653559   0.179863   
0.207965   0.104631   -0.134293   0.294179   
0.200273   0.351259   -0.207967   0.472118   
0.167383   0.58257   -0.0548312   0.528121   
0.23977   0.490025   0.0554719   0.435146   
0.263324   0.385286   0.0595126   0.356308   
0.256282   0.32097   0.0473107   0.305218   
0.241777   0.279794   0.0367201   0.270441   
0.226884   0.251146   0.0290206   0.245145   
0.213364   0.229858   0.0234867   0.225767   
0.201486   0.21326   0.0194304   0.210333   
0.191115   0.199848   0.0163814   0.197675   
0.182035   0.188716   0.0140336   0.187052   
0.174038   0.17928   0.0121861   0.177974   
0.166947   0.171147   0.0107043   0.170099   
0.045733   0.00195616   -0.00894463   0.0473908   
0.0530077   0.00282016   -0.0115535   0.0553961   
0.0622513   0.00422766   -0.0153126   0.0658282   
0.0741726   0.00664323   -0.0209181   0.0797851   
0.0897068   0.0110519   -0.029595   0.0990233   
0.109864   0.0196911   -0.0435253   0.126403   
0.134808   0.0379597   -0.0663886   0.166491   
0.160369   0.0790122   -0.102576   0.225511   
0.170179   0.169304   -0.147084   0.306127   
0.144243   0.321088   -0.155058   0.386934   
0.123557   0.439686   -0.0784257   0.415591   
0.151446   0.437615   0.0067436   0.385102   
0.184903   0.381533   0.0424448   0.338548   
0.200928   0.328056   0.0483678   0.298488   
0.203961   0.287569   0.0445484   0.267576   
0.200559   0.257633   0.0387437   0.243786   
0.194476   0.234967   0.0332502   0.225059   
0.187516   0.217252   0.028584   0.209937   
0.180495   0.202993   0.0247435   0.197439   
0.173766   0.191225   0.0216016   0.186904   
0.167466   0.18131   0.0190217   0.177877   
0.161628   0.172811   0.0168871   0.170034   
0.0593835   0.00487577   -0.016044   0.0635048   
0.067705   0.00688041   -0.0203202   0.0735133   
0.0777716   0.0100195   -0.026226   0.0862147   
0.0898907   0.0151221   -0.034532   0.102601   
0.104177   0.0237482   -0.0463643   0.124064   
0.120073   0.0388779   -0.0631853   0.15244   
0.135272   0.0660546   -0.0861714   0.189744   
0.144098   0.114237   -0.113592   0.236775   
0.138254   0.191763   -0.134569   0.289312   
0.1179   0.288635   -0.126513   0.333463   
0.104222   0.362639   -0.0795024   0.351477   
0.114295   0.381022   -0.0215291   0.340709   
0.136766   0.358471   0.0177835   0.314847   
0.155968   0.323167   0.0356746   0.286665   
0.167207   0.289679   0.0407578   0.261571   
0.17184   0.261804   0.0400001   0.240587   
0.172224   0.239353   0.0370465   0.223262   
0.170162   0.221247   0.033521   0.208874   
0.166795   0.206454   0.0300807   0.196781   
0.1628   0.194169   0.0269583   0.186481   
0.158565   0.183802   0.0242091   0.177594   
0.154309   0.174924   0.0218183   0.16984   
0.0695716   0.00919224   -0.0237527   0.077316   
0.0778662   0.012656   -0.0294154   0.0885079   
0.0873306   0.0178448   -0.0368679   0.102296   
0.0978451   0.0258004   -0.046698   0.119403   
0.10889   0.0382416   -0.059538   0.140676   
0.119168   0.0579037   -0.0757417   0.166925   
0.12616   0.0886895   -0.0944972   0.19845   
0.12625   0.13467   -0.112077   0.234002   
0.117002   0.196085   -0.120197   0.26933   
0.102089   0.26274   -0.108815   0.296907   
0.0923135   0.314301   -0.0764199   0.309537   
0.0956242   0.335868   -0.0355613   0.305987   
0.109059   0.330204   -0.00133519   0.291414   
0.124707   0.309867   0.0203623   0.272343   
0.137401   0.285355   0.0313632   0.25308   
0.145748   0.261955   0.0355316   0.235523   
0.150271   0.24145   0.0359593   0.220172   
0.151977   0.22403   0.034555   0.206933   
0.151782   0.209336   0.0323696   0.195523   
0.150368   0.1969   0.0299455   0.185642   
0.148208   0.186287   0.0275478   0.17702   
0.145616   0.177143   0.0252959   0.169436   
0.0764756   0.014615   -0.0312557   0.0887422   
0.0839948   0.0196085   -0.0378127   0.100409   
0.0920329   0.0267578   -0.0460193   0.114354   
0.100198   0.0371104   -0.0561688   0.131008   
0.107716   0.0521748   -0.0683648   0.150752   
0.113285   0.0739423   -0.0821637   0.173715   
0.115105   0.104549   -0.0959575   0.199422   
0.111498   0.145105   -0.106289   0.226275   
0.102451   0.193458   -0.108004   0.251191   
0.0912957   0.242252   -0.0966636   0.270066   
0.0838958   0.28075   -0.0726573   0.27954   
0.0844438   0.301187   -0.0424524   0.278958   
0.0923379   0.303441   -0.0142501   0.270542   
0.103764   0.293085   0.0070521   0.257688   
0.115047   0.276536   0.0207318   0.243276   
0.124197   0.258315   0.0283115   0.229072   
0.130686   0.240807   0.0317509   0.215919   
0.134748   0.224978   0.0326476   0.204094   
0.136874   0.21105   0.0320947   0.193596   
0.13756   0.198916   0.0307774   0.184308   
0.137222   0.188361   0.0291037   0.176078   
0.136177   0.179147   0.0273076   0.168758   
0.0805759   0.0207269   -0.0380028   0.0979011   
0.0869231   0.0271069   -0.0449351   0.109506   
0.0932391   0.0358523   -0.053192   0.122981   
0.0990361   0.0478663   -0.0627935   0.13852   
0.103566   0.0642802   -0.073473   0.15619   
0.105833   0.0863143   -0.0844211   0.175774   
0.1048   0.114859   -0.0939871   0.196568   
0.0999248   0.149654   -0.0995697   0.217185   
0.0919465   0.188264   -0.0981448   0.235552   
0.0833338   0.225709   -0.0877228   0.249331   
0.0774924   0.255843   -0.0690346   0.256772   
0.0768497   0.274202   -0.0457652   0.257495   
0.0814823   0.28004   -0.0226819   0.252561   
0.0895392   0.27586   -0.0033151   0.243821   
0.0986919   0.265399   0.010956   0.233118   
0.107203   0.251951   0.0203957   0.221833   
0.114189   0.237743   0.0260059   0.210813   
0.119411   0.22402   0.0288867   0.200491   
0.122987   0.211355   0.0299542   0.191035   
0.125179   0.199934   0.0298802   0.182467   
0.126276   0.189747   0.029124   0.174739   
0.126537   0.180692   0.0279865   0.16777   
0.0824671   0.0271102   -0.0437085   0.10503   
0.0875231   0.0346051   -0.0505838   0.116212   
0.0921646   0.0444743   -0.0583942   0.128852   
0.0959279   0.0574126   -0.0669683   0.142987   
0.0982153   0.0741688   -0.0758523   0.158504   
0.0983762   0.09537   -0.0841679   0.175054   
0.0959148   0.121186   -0.090521   0.191949   
0.0908365   0.150852   -0.0931049   0.208112   
0.0839981   0.182265   -0.0901669   0.222163   
0.0771497   0.212053   -0.0808159   0.232707   
0.0723917   0.23646   -0.0657421   0.238751   
0.0712325   0.252723   -0.0472087   0.240056   
0.0739225   0.260062   -0.0281579   0.237173   
0.0795516   0.259599   -0.0110621   0.231162   
0.0866937   0.253489   0.00271659   0.223201   
0.0940413   0.243983   0.0128853   0.214302   
0.100713   0.232886   0.019824   0.205191   
0.106266   0.221415   0.0241848   0.196323   
0.110582   0.210288   0.0266353   0.187946   
0.113724   0.199871   0.0277421   0.180167   
0.115843   0.19031   0.0279419   0.173014   
0.117117   0.181628   0.0275522   0.166465   
0.0827271   0.0334201   -0.0482929   0.11042   
0.0865498   0.041714   -0.0548063   0.120962   
0.0897346   0.0522484   -0.0618832   0.132598   