<VTKFile type="UnstructuredGrid"  version="0.1"   > 
<UnstructuredGrid> 
<Piece  NumberOfPoints="  484" NumberOfCells=" 441"> 
<Points> 
<DataArray  type="Float64"  NumberOfComponents="3"  format="ascii" > 
0.000000 0.000000 0.0 
0.476190 0.000000 0.0 
0.952381 0.000000 0.0 
1.428571 0.000000 0.0 
1.904762 0.000000 0.0 
2.380952 0.000000 0.0 
2.857143 0.000000 0.0 
3.333333 0.000000 0.0 
3.809524 0.000000 0.0 
4.285714 0.000000 0.0 
4.761905 0.000000 0.0 
5.238095 0.000000 0.0 
5.714286 0.000000 0.0 
6.190476 0.000000 0.0 
6.666667 0.000000 0.0 
7.142857 0.000000 0.0 
7.619048 0.000000 0.0 
8.095238 0.000000 0.0 
8.571429 0.000000 0.0 
9.047619 0.000000 0.0 
9.523810 0.000000 0.0 
10.000000 0.000000 0.0 
0.000000 0.476190 0.0 
0.476190 0.476190 0.0 
0.952381 0.476190 0.0 
1.428571 0.476190 0.0 
1.904762 0.476190 0.0 
2.380952 0.476190 0.0 
2.857143 0.476190 0.0 
3.333333 0.476190 0.0 
3.809524 0.476190 0.0 
4.285714 0.476190 0.0 
4.761905 0.476190 0.0 
5.238095 0.476190 0.0 
5.714286 0.476190 0.0 
6.190476 0.476190 0.0 
6.666667 0.476190 0.0 
7.142857 0.476190 0.0 
7.619048 0.476190 0.0 
8.095238 0.476190 0.0 
8.571429 0.476190 0.0 
9.047619 0.476190 0.0 
9.523810 0.476190 0.0 
10.000000 0.476190 0.0 
0.000000 0.952381 0.0 
0.476190 0.952381 0.0 
0.952381 0.952381 0.0 
1.428571 0.952381 0.0 
1.904762 0.952381 0.0 
2.380952 0.952381 0.0 
2.857143 0.952381 0.0 
3.333333 0.952381 0.0 
3.809524 0.952381 0.0 
4.285714 0.952381 0.0 
4.761905 0.952381 0.0 
5.238095 0.952381 0.0 
5.714286 0.952381 0.0 
6.190476 0.952381 0.0 
6.666667 0.952381 0.0 
7.142857 0.952381 0.0 
7.619048 0.952381 0.0 
8.095238 0.952381 0.0 
8.571429 0.952381 0.0 
9.047619 0.952381 0.0 
9.523810 0.952381 0.0 
10.000000 0.952381 0.0 
0.000000 1.428571 0.0 
0.476190 1.428571 0.0 
0.952381 1.428571 0.0 
1.428571 1.428571 0.0 
1.904762 1.428571 0.0 
2.380952 1.428571 0.0 
2.857143 1.428571 0.0 
3.333333 1.428571 0.0 
3.809524 1.428571 0.0 
4.285714 1.428571 0.0 
4.761905 1.428571 0.0 
5.238095 1.428571 0.0 
5.714286 1.428571 0.0 
6.190476 1.428571 0.0 
6.666667 1.428571 0.0 
7.142857 1.428571 0.0 
7.619048 1.428571 0.0 
8.095238 1.428571 0.0 
8.571429 1.428571 0.0 
9.047619 1.428571 0.0 
9.523810 1.428571 0.0 
10.000000 1.428571 0.0 
0.000000 1.904762 0.0 
0.476190 1.904762 0.0 
0.952381 1.904762 0.0 
1.428571 1.904762 0.0 
1.904762 1.904762 0.0 
2.380952 1.904762 0.0 
2.857143 1.904762 0.0 
3.333333 1.904762 0.0 
3.809524 1.904762 0.0 
4.285714 1.904762 0.0 
4.761905 1.904762 0.0 
5.238095 1.904762 0.0 
5.714286 1.904762 0.0 
6.190476 1.904762 0.0 
6.666667 1.904762 0.0 
7.142857 1.904762 0.0 
7.619048 1.904762 0.0 
8.095238 1.904762 0.0 
8.571429 1.904762 0.0 
9.047619 1.904762 0.0 
9.523810 1.904762 0.0 
10.000000 1.904762 0.0 
0.000000 2.380952 0.0 
0.476190 2.380952 0.0 
0.952381 2.380952 0.0 
1.428571 2.380952 0.0 
1.904762 2.380952 0.0 
2.380952 2.380952 0.0 
2.857143 2.380952 0.0 
3.333333 2.380952 0.0 
3.809524 2.380952 0.0 
4.285714 2.380952 0.0 
4.761905 2.380952 0.0 
5.238095 2.380952 0.0 
5.714286 2.380952 0.0 
6.190476 2.380952 0.0 
6.666667 2.380952 0.0 
7.142857 2.380952 0.0 
7.619048 2.380952 0.0 
8.095238 2.380952 0.0 
8.571429 2.380952 0.0 
9.047619 2.380952 0.0 
9.523810 2.380952 0.0 
10.000000 2.380952 0.0 
0.000000 2.857143 0.0 
0.476190 2.857143 0.0 
0.952381 2.857143 0.0 
1.428571 2.857143 0.0 
1.904762 2.857143 0.0 
2.380952 2.857143 0.0 
2.857143 2.857143 0.0 
3.333333 2.857143 0.0 
3.809524 2.857143 0.0 
4.285714 2.857143 0.0 
4.761905 2.857143 0.0 
5.238095 2.857143 0.0 
5.714286 2.857143 0.0 
6.190476 2.857143 0.0 
6.666667 2.857143 0.0 
7.142857 2.857143 0.0 
7.619048 2.857143 0.0 
8.095238 2.857143 0.0 
8.571429 2.857143 0.0 
9.047619 2.857143 0.0 
9.523810 2.857143 0.0 
10.000000 2.857143 0.0 
0.000000 3.333333 0.0 
0.476190 3.333333 0.0 
0.952381 3.333333 0.0 
1.428571 3.333333 0.0 
1.904762 3.333333 0.0 
2.380952 3.333333 0.0 
2.857143 3.333333 0.0 
3.333333 3.333333 0.0 
3.809524 3.333333 0.0 
4.285714 3.333333 0.0 
4.761905 3.333333 0.0 
5.238095 3.333333 0.0 
5.714286 3.333333 0.0 
6.190476 3.333333 0.0 
6.666667 3.333333 0.0 
7.142857 3.333333 0.0 
7.619048 3.333333 0.0 
8.095238 3.333333 0.0 
8.571429 3.333333 0.0 
9.047619 3.333333 0.0 
9.523810 3.333333 0.0 
10.000000 3.333333 0.0 
0.000000 3.809524 0.0 
0.476190 3.809524 0.0 
0.952381 3.809524 0.0 
1.428571 3.809524 0.0 
1.904762 3.809524 0.0 
2.380952 3.809524 0.0 
2.857143 3.809524 0.0 
3.333333 3.809524 0.0 
3.809524 3.809524 0.0 
4.285714 3.809524 0.0 
4.761905 3.809524 0.0 
5.238095 3.809524 0.0 
5.714286 3.809524 0.0 
6.190476 3.809524 0.0 
6.666667 3.809524 0.0 
7.142857 3.809524 0.0 
7.619048 3.809524 0.0 
8.095238 3.809524 0.0 
8.571429 3.809524 0.0 
9.047619 3.809524 0.0 
9.523810 3.809524 0.0 
10.000000 3.809524 0.0 
0.000000 4.285714 0.0 
0.476190 4.285714 0.0 
0.952381 4.285714 0.0 
1.428571 4.285714 0.0 
1.904762 4.285714 0.0 
2.380952 4.285714 0.0 
2.857143 4.285714 0.0 
3.333333 4.285714 0.0 
3.809524 4.285714 0.0 
4.285714 4.285714 0.0 
4.761905 4.285714 0.0 
5.238095 4.285714 0.0 
5.714286 4.285714 0.0 
6.190476 4.285714 0.0 
6.666667 4.285714 0.0 
7.142857 4.285714 0.0 
7.619048 4.285714 0.0 
8.095238 4.285714 0.0 
8.571429 4.285714 0.0 
9.047619 4.285714 0.0 
9.523810 4.285714 0.0 
10.000000 4.285714 0.0 
0.000000 4.761905 0.0 
0.476190 4.761905 0.0 
0.952381 4.761905 0.0 
1.428571 4.761905 0.0 
1.904762 4.761905 0.0 
2.380952 4.761905 0.0 
2.857143 4.761905 0.0 
3.333333 4.761905 0.0 
3.809524 4.761905 0.0 
4.285714 4.761905 0.0 
4.761905 4.761905 0.0 
5.238095 4.761905 0.0 
5.714286 4.761905 0.0 
6.190476 4.761905 0.0 
6.666667 4.761905 0.0 
7.142857 4.761905 0.0 
7.619048 4.761905 0.0 
8.095238 4.761905 0.0 
8.571429 4.761905 0.0 
9.047619 4.761905 0.0 
9.523810 4.761905 0.0 
10.000000 4.761905 0.0 
0.000000 5.238095 0.0 
0.476190 5.238095 0.0 
0.952381 5.238095 0.0 
1.428571 5.238095 0.0 
1.904762 5.238095 0.0 
2.380952 5.238095 0.0 
2.857143 5.238095 0.0 
3.333333 5.238095 0.0 
3.809524 5.238095 0.0 
4.285714 5.238095 0.0 
4.761905 5.238095 0.0 
5.238095 5.238095 0.0 
5.714286 5.238095 0.0 
6.190476 5.238095 0.0 
6.666667 5.238095 0.0 
7.142857 5.238095 0.0 
7.619048 5.238095 0.0 
8.095238 5.238095 0.0 
8.571429 5.238095 0.0 
9.047619 5.238095 0.0 
9.523810 5.238095 0.0 
10.000000 5.238095 0.0 
0.000000 5.714286 0.0 
0.476190 5.714286 0.0 
0.952381 5.714286 0.0 
1.428571 5.714286 0.0 
1.904762 5.714286 0.0 
2.380952 5.714286 0.0 
2.857143 5.714286 0.0 
3.333333 5.714286 0.0 
3.809524 5.714286 0.0 
4.285714 5.714286 0.0 
4.761905 5.714286 0.0 
5.238095 5.714286 0.0 
5.714286 5.714286 0.0 
6.190476 5.714286 0.0 
6.666667 5.714286 0.0 
7.142857 5.714286 0.0 
7.619048 5.714286 0.0 
8.095238 5.714286 0.0 
8.571429 5.714286 0.0 
9.047619 5.714286 0.0 
9.523810 5.714286 0.0 
10.000000 5.714286 0.0 
0.000000 6.190476 0.0 
0.476190 6.190476 0.0 
0.952381 6.190476 0.0 
1.428571 6.190476 0.0 
1.904762 6.190476 0.0 
2.380952 6.190476 0.0 
2.857143 6.190476 0.0 
3.333333 6.190476 0.0 
3.809524 6.190476 0.0 
4.285714 6.190476 0.0 
4.761905 6.190476 0.0 
5.238095 6.190476 0.0 
5.714286 6.190476 0.0 
6.190476 6.190476 0.0 
6.666667 6.190476 0.0 
7.142857 6.190476 0.0 
7.619048 6.190476 0.0 
8.095238 6.190476 0.0 
8.571429 6.190476 0.0 
9.047619 6.190476 0.0 
9.523810 6.190476 0.0 
10.000000 6.190476 0.0 
0.000000 6.666667 0.0 
0.476190 6.666667 0.0 
0.952381 6.666667 0.0 
1.428571 6.666667 0.0 
1.904762 6.666667 0.0 
2.380952 6.666667 0.0 
2.857143 6.666667 0.0 
3.333333 6.666667 0.0 
3.809524 6.666667 0.0 
4.285714 6.666667 0.0 
4.761905 6.666667 0.0 
5.238095 6.666667 0.0 
5.714286 6.666667 0.0 
6.190476 6.666667 0.0 
6.666667 6.666667 0.0 
7.142857 6.666667 0.0 
7.619048 6.666667 0.0 
8.095238 6.666667 0.0 
8.571429 6.666667 0.0 
9.047619 6.666667 0.0 
9.523810 6.666667 0.0 
10.000000 6.666667 0.0 
0.000000 7.142857 0.0 
0.476190 7.142857 0.0 
0.952381 7.142857 0.0 
1.428571 7.142857 0.0 
1.904762 7.142857 0.0 
2.380952 7.142857 0.0 
2.857143 7.142857 0.0 
3.333333 7.142857 0.0 
3.809524 7.142857 0.0 
4.285714 7.142857 0.0 
4.761905 7.142857 0.0 
5.238095 7.142857 0.0 
5.714286 7.142857 0.0 
6.190476 7.142857 0.0 
6.666667 7.142857 0.0 
7.142857 7.142857 0.0 
7.619048 7.142857 0.0 
8.095238 7.142857 0.0 
8.571429 7.142857 0.0 
9.047619 7.142857 0.0 
9.523810 7.142857 0.0 
10.000000 7.142857 0.0 
0.000000 7.619048 0.0 
0.476190 7.619048 0.0 
0.952381 7.619048 0.0 
1.428571 7.619048 0.0 
1.904762 7.619048 0.0 
2.380952 7.619048 0.0 
2.857143 7.619048 0.0 
3.333333 7.619048 0.0 
3.809524 7.619048 0.0 
4.285714 7.619048 0.0 
4.761905 7.619048 0.0 
5.238095 7.619048 0.0 
5.714286 7.619048 0.0 
6.190476 7.619048 0.0 
6.666667 7.619048 0.0 
7.142857 7.619048 0.0 
7.619048 7.619048 0.0 
8.095238 7.619048 0.0 
8.571429 7.619048 0.0 
9.047619 7.619048 0.0 
9.523810 7.619048 0.0 
10.000000 7.619048 0.0 
0.000000 8.095238 0.0 
0.476190 8.095238 0.0 
0.952381 8.095238 0.0 
1.428571 8.095238 0.0 
1.904762 8.095238 0.0 
2.380952 8.095238 0.0 
2.857143 8.095238 0.0 
3.333333 8.095238 0.0 
3.809524 8.095238 0.0 
4.285714 8.095238 0.0 
4.761905 8.095238 0.0 
5.238095 8.095238 0.0 
5.714286 8.095238 0.0 
6.190476 8.095238 0.0 
6.666667 8.095238 0.0 
7.142857 8.095238 0.0 
7.619048 8.095238 0.0 
8.095238 8.095238 0.0 
8.571429 8.095238 0.0 
9.047619 8.095238 0.0 
9.523810 8.095238 0.0 
10.000000 8.095238 0.0 
0.000000 8.571429 0.0 
0.476190 8.571429 0.0 
0.952381 8.571429 0.0 
1.428571 8.571429 0.0 
1.904762 8.571429 0.0 
2.380952 8.571429 0.0 
2.857143 8.571429 0.0 
3.333333 8.571429 0.0 
3.809524 8.571429 0.0 
4.285714 8.571429 0.0 
4.761905 8.571429 0.0 
5.238095 8.571429 0.0 
5.714286 8.571429 0.0 
6.190476 8.571429 0.0 
6.666667 8.571429 0.0 
7.142857 8.571429 0.0 
7.619048 8.571429 0.0 
8.095238 8.571429 0.0 
8.571429 8.571429 0.0 
9.047619 8.571429 0.0 
9.523810 8.571429 0.0 
10.000000 8.571429 0.0 
0.000000 9.047619 0.0 
0.476190 9.047619 0.0 
0.952381 9.047619 0.0 
1.428571 9.047619 0.0 
1.904762 9.047619 0.0 
2.380952 9.047619 0.0 
[...]
<PointData  Vectors="sigma"> 
<DataArray  type="Float64"  Name="sigma" NumberOfComponents="4" format="ascii"> 
0.0800989   0.0446733   0.0542979   0.116953   
0.0820316   0.0539294   0.0596639   0.126067   
0.0831007   0.0647152   0.0650209   0.135643   
0.083234   0.0774891   0.0700627   0.145633   
0.0822358   0.0922364   0.0743895   0.155841   
0.0800669   0.108893   0.0774479   0.165964   
0.0768317   0.127092   0.0786647   0.175656   
0.0727818   0.14601   0.0774705   0.184376   
0.0685188   0.16486   0.0735966   0.191904   
0.0645518   0.18214   0.0668924   0.197505   
0.0616451   0.196983   0.057883   0.201273   
0.0602762   0.2085   0.0470804   0.202947   
0.0605334   0.215979   0.0355119   0.202535   
0.0624598   0.219777   0.0240699   0.200534   
0.065651   0.220141   0.0134598   0.197137   
0.0696779   0.217749   0.00420072   0.192744   
0.0741124   0.213376   -0.00353271   0.187738   
0.0785594   0.207631   -0.00968276   0.182351   
0.0827553   0.201133   -0.0144157   0.176866   
0.0865479   0.19428   -0.0178648   0.171401   
0.0897773   0.187407   -0.0202943   0.166109   
0.0934274   0.181786   -0.0215677   0.161822   
0.0818113   0.0393465   0.0518162   0.114355   
0.0845883   0.0481625   0.0577398   0.124107   
0.0865607   0.0589722   0.063956   0.134673   
0.0875507   0.0721255   0.0701137   0.145946   
0.0872256   0.0878051   0.075727   0.15768   
0.0854263   0.106048   0.0801251   0.169543   
0.0821652   0.126501   0.0825039   0.181053   
0.0776901   0.148339   0.0820523   0.191608   
0.0727254   0.170306   0.0781825   0.200611   
0.0680463   0.190668   0.0707416   0.207421   
0.064669   0.207893   0.0602011   0.211731   
0.0632954   0.220712   0.0475353   0.213375   
0.0640207   0.228521   0.0340503   0.212529   
0.0667754   0.231566   0.020993   0.209621   
0.0709623   0.230548   0.00928941   0.205151   
0.0759467   0.226439   -0.000539387   0.199615   
0.0811554   0.220273   -0.00835269   0.193492   
0.0861317   0.212886   -0.0142583   0.187117   
0.0906049   0.204945   -0.0185152   0.180752   
0.0944445   0.196924   -0.0214178   0.174575   
0.0975616   0.189098   -0.0232532   0.168671   
0.100045   0.18144   -0.0241659   0.162878   
0.0827865   0.0334167   0.0482788   0.110437   
0.086526   0.0416742   0.0547862   0.120922   
0.0897445   0.0522264   0.0618413   0.132543   
0.0918891   0.0654512   0.0692047   0.145193   
0.0926269   0.0818759   0.0763518   0.158708   
0.0915229   0.101669   0.0824862   0.172684   
0.0884082   0.12467   0.0865312   0.186547   
0.0836018   0.150026   0.0872703   0.199507   
0.0777079   0.175975   0.0836501   0.210531   
0.0722152   0.20045   0.075338   0.218968   
0.0682495   0.220742   0.0627957   0.223941   
0.0667929   0.23515   0.0476638   0.225535   
0.068378   0.24306   0.0317536   0.223961   
0.0722828   0.244817   0.0167982   0.219797   
0.0777586   0.241717   0.00399238   0.213836   
0.0838891   0.235324   -0.00621013   0.206855   
0.08987   0.226907   -0.0138117   0.199358   
0.095279   0.217613   -0.0191589   0.191835   
0.0998275   0.208102   -0.0226699   0.184498   
0.103476   0.198866   -0.0247818   0.177537   
0.106256   0.190123   -0.0258468   0.170996   
0.108255   0.181935   -0.0261477   0.164849   
0.0823424   0.0270949   0.0437347   0.104983   
0.0875638   0.0346147   0.0505442   0.116184   
0.0921444   0.0444265   0.0583517   0.128784   
0.0959562   0.0573811   0.0669166   0.142925   
0.0982231   0.0740834   0.0758016   0.158421   
0.0984163   0.0953004   0.0841244   0.174984   
0.0960106   0.121125   0.0904635   0.191862   
0.0908977   0.150862   0.0930265   0.208016   
0.0842041   0.182438   0.0901127   0.2222   
0.0771873   0.212111   0.0807353   0.232662   
0.0724333   0.236582   0.0658323   0.23892   
0.0714078   0.252781   0.0472604   0.240099   
0.073927   0.260078   0.028195   0.2372   
0.0795721   0.259604   0.0111244   0.231171   
0.0867351   0.253552   -0.00268528   0.223252   
0.0940388   0.243998   -0.0128459   0.214309   
0.100745   0.232949   -0.0198012   0.205238   
0.106279   0.221456   -0.0241559   0.196347   
0.110614   0.210354   -0.0266122   0.187991   
0.113747   0.199931   -0.0277101   0.180202   
0.115872   0.190365   -0.0278957   0.173037   
0.117175   0.18164   -0.0275003   0.166458   
0.0808091   0.0207922   0.037948   0.0979918   
0.0868678   0.0271184   0.0449291   0.10946   
0.0932979   0.0358734   0.0531358   0.122942   
0.0990329   0.0477949   0.0627341   0.138439   
0.103619   0.0642265   0.073423   0.15614   
0.105829   0.0861709   0.0843738   0.175678   
0.104721   0.114689   0.0940039   0.196519   
0.0998743   0.149218   0.0996589   0.217103   
0.0916378   0.187577   0.0982567   0.23528   
0.083387   0.22518   0.087957   0.249182   
0.0775259   0.255266   0.0689676   0.256224   
0.0766573   0.274094   0.0458157   0.257468   
0.0815407   0.279934   0.0227594   0.252468   
0.0895576   0.275911   0.00331822   0.243866   
0.0986367   0.265366   -0.0109076   0.233089   
0.107248   0.252032   -0.0203806   0.221897   
0.114172   0.237763   -0.0259723   0.210818   
0.119443   0.22409   -0.0288703   0.200543   
0.122993   0.2114   -0.0299268   0.191058   
0.125206   0.199994   -0.0298527   0.182503   
0.126304   0.189789   -0.029086   0.174755   
0.126559   0.180706   -0.0279334   0.167758   
0.0759876   0.0146423   0.0313534   0.0884589   
0.0840979   0.0196476   0.037712   0.100363   
0.0919902   0.0267114   0.0459572   0.114257   
0.100288   0.0371031   0.0560994   0.130976   
0.107706   0.0520424   0.0682929   0.15065   
0.113406   0.0739137   0.0821148   0.173696   
0.115309   0.104411   0.0958303   0.19927   
0.111786   0.145713   0.106066   0.226251   
0.103257   0.194398   0.10774   0.251402   
0.0915433   0.243355   0.0962241   0.270373   
0.0842357   0.282089   0.072874   0.280784   
0.0849415   0.301145   0.0424886   0.278818   
0.0923403   0.303812   0.0142564   0.270895   
0.103726   0.293017   -0.00692375   0.25762   
0.115168   0.27669   -0.0207205   0.243399   
0.124122   0.258291   -0.0282628   0.229035   
0.130743   0.240899   -0.0317446   0.215994   
0.134727   0.225004   -0.0326183   0.204098   
0.136907   0.211117   -0.0320787   0.193643   
0.137569   0.198957   -0.0307491   0.184324   
0.137249   0.1884   -0.0290742   0.176097   
0.136223   0.179167   -0.0272827   0.168771   
0.070575   0.00949269   0.0236074   0.0779289   
0.0777849   0.0128357   0.0294579   0.0884314   
0.0874693   0.0179012   0.03678   0.102293   
0.0978388   0.0257175   0.0466114   0.119313   
0.10901   0.0381888   0.0595123   0.140726   
0.119066   0.0576891   0.0756531   0.166752   
0.125924   0.0885491   0.0945917   0.198469   
0.12556   0.132731   0.112368   0.233659   
0.115371   0.193431   0.120682   0.268519   
0.101542   0.259332   0.109866   0.295707   
0.0916902   0.310638   0.0763001   0.306408   
0.0950976   0.336272   0.035949   0.306628   
0.108932   0.329202   0.0015643   0.290494   
0.124775   0.310096   -0.0204459   0.272562   
0.137141   0.28521   -0.0312895   0.252934   
0.145874   0.262094   -0.0355528   0.235652   
0.150191   0.241443   -0.0359161   0.220135   
0.152035   0.22411   -0.0345531   0.207   
0.151771   0.209371   -0.0323421   0.195531   
0.150401   0.196952   -0.0299286   0.185677   
0.148231   0.18632   -0.0275233   0.177036   
0.145631   0.177156   -0.0252626   0.169434   
0.0573985   0.00468782   0.016155   0.0618906   
0.0678243   0.0068314   0.0199748   0.0733516   
0.0776923   0.00990278   0.0261528   0.0861202   
0.0901492   0.0151965   0.0344382   0.102693   
0.103955   0.02338   0.0463501   0.123967   
0.120583   0.0393198   0.0630886   0.152596   
0.135146   0.0650919   0.0861326   0.189634   
0.14646   0.11955   0.112758   0.237437   
0.141498   0.197386   0.133382   0.290561   
0.121815   0.299786   0.123493   0.337556   
0.108637   0.373984   0.0796657   0.360663   
0.114639   0.379335   0.0203241   0.338806   
0.137698   0.3617   -0.0180263   0.317738   
0.155539   0.322558   -0.0355316   0.2861   
0.167691   0.290167   -0.0407707   0.262003   
0.171554   0.261612   -0.0399556   0.240375   
0.1724   0.23952   -0.0370458   0.223418   
0.17008   0.221243   -0.0334963   0.208837   
0.166861   0.206528   -0.0300713   0.196845   
0.162799   0.194203   -0.0269382   0.186492   
0.1586   0.18384   -0.0241922   0.177623   
0.15436   0.174955   -0.0218095   0.169874   
0.0497639   0.00381576   0.00915175   0.0505211   
0.0533   0.00337406   0.0118022   0.0555905   
0.0624451   0.00420288   0.0152517   0.0659731   
0.0742876   0.00653144   0.0208344   0.0798643   
0.0894916   0.0110462   0.0297473   0.0989795   
0.110509   0.0194681   0.0430592   0.1265   
0.132352   0.0376285   0.0672177   0.165854   
0.16386   0.0762562   0.100726   0.22496   
0.167259   0.171379   0.151375   0.312129   
0.142738   0.3087   0.153996   0.377823   
0.114816   0.423779   0.0785748   0.403283   
0.154277   0.445955   -0.00792913   0.392512   
0.183851   0.377587   -0.0402224   0.334375   
0.200022   0.328049   -0.0489015   0.298633   
0.203804   0.287125   -0.0442683   0.267093   
0.200708   0.257969   -0.0388332   0.244088   
0.194351   0.234874   -0.0331871   0.224932   
0.187623   0.217383   -0.0285937   0.210058   
0.180464   0.203009   -0.0247224   0.197428   
0.173819   0.191286   -0.0215928   0.186957   
0.167488   0.181341   -0.0190093   0.1779   
0.16164   0.172829   -0.0168699   0.170044   
0.0215028   -0.0017868   0.00155853   0.0226113   
0.0335311   7.9882e-05   0.00328547   0.0339712   
0.0405032   0.000700489   0.0061626   0.0415519   
0.0500372   0.00172435   0.00851016   0.0513583   
0.0611377   0.00237669   0.013011   0.0640782   
0.0827966   0.00709258   0.0190931   0.0860928   
0.1064   0.00995125   0.0365238   0.119847   
0.156573   0.0322658   0.0625705   0.179581   
0.208445   0.107061   0.131913   0.291202   
0.197198   0.355079   0.205307   0.470532   
0.161895   0.576369   0.0524042   0.522818   
0.2384   0.484212   -0.0541771   0.429727   
0.264979   0.388684   -0.0584067   0.358511   
0.256495   0.321279   -0.0453485   0.304586   
0.241907   0.279857   -0.037284   0.270758   
0.226847   0.251231   -0.0287335   0.245077   
0.213421   0.22993   -0.0236103   0.225869   
0.201492   0.213325   -0.019358   0.210351   
0.191149   0.199901   -0.0164033   0.197724   
0.182061   0.188763   -0.0140139   0.187084   
0.174072   0.179317   -0.0121813   0.178008   
0.166987   0.17118   -0.0107098   0.170137   
0.0156865   0.0111709   0.0101589   0.0224774   
0.0128376   -0.00175945   0.00216705   0.014303   
0.013417   0.00037773   0.0014067   0.0134546   
0.0181608   -7.81473e-05   0.000367895   0.0182111   
0.020755   -0.00109039   0.00338399   0.0221121   
0.0325378   0.00440507   -0.00195823   0.0307618   
0.0426941   -0.00739993   0.0179004   0.0561671   
0.0692633   0.0062268   -0.0106237   0.068873   
0.143667   0.0259023   0.0439655   0.152934   
0.37751   0.173278   0.255555   0.5505   
0.429541   0.834869   -0.0973567   0.74252   
0.411289   0.475031   -0.0593825   0.458276   
0.344526   0.365146   -0.0307871   0.359264   
0.304414   0.310991   -0.0216437   0.31003   
0.266213   0.272183   -0.0142801   0.270381   
0.243709   0.246324   -0.010947   0.245759   
0.224274   0.226464   -0.00849879   0.225857   
0.20946   0.210807   -0.00691609   0.210478   
0.196965   0.198028   -0.00573822   0.197749   
0.186537   0.18731   -0.00487072   0.187115   
0.177575   0.178181   -0.00419795   0.178027   
0.169792   0.170264   -0.00366343   0.170147   
0.0156865   0.0111709   -0.0101589   0.0224774   
0.0128376   -0.00175945   -0.00216705   0.014303   
0.013417   0.00037773   -0.0014067   0.0134546   
0.0181608   -7.81473e-05   -0.000367895   0.0182111   
0.020755   -0.00109039   -0.00338399   0.0221121   
0.0325378   0.00440507   0.00195823   0.0307618   
0.0426941   -0.00739993   -0.0179004   0.0561671   
0.0692633   0.0062268   0.0106237   0.068873   
0.143667   0.0259023   -0.0439655   0.152934   
0.37751   0.173278   -0.255555   0.5505   
0.429541   0.834869   0.0973567   0.74252   
0.411289   0.475031   0.0593825   0.458276   
0.344526   0.365146   0.0307871   0.359264   
0.304414   0.310991   0.0216437   0.31003   
0.266213   0.272183   0.0142801   0.270381   
0.243709   0.246324   0.010947   0.245759   
0.224274   0.226464   0.00849879   0.225857   
0.20946   0.210807   0.00691609   0.210478   
0.196965   0.198028   0.00573822   0.197749   
0.186537   0.18731   0.00487072   0.187115   
0.177575   0.178181   0.00419795   0.178027   
0.169792   0.170264   0.00366343   0.170147   
0.0215028   -0.0017868   -0.00155853   0.0226113   
0.0335311   7.9882e-05   -0.00328547   0.0339712   
0.0405032   0.000700489   -0.0061626   0.0415519   
0.0500372   0.00172435   -0.00851016   0.0513583   
0.0611377   0.00237669   -0.013011   0.0640782   
0.0827966   0.00709258   -0.0190931   0.0860928   
0.1064   0.00995125   -0.0365238   0.119847   
0.156573   0.0322658   -0.0625705   0.179581   
0.208445   0.107061   -0.131913   0.291202   
0.197198   0.355079   -0.205307   0.470532   
0.161895   0.576369   -0.0524042   0.522818   
0.2384   0.484212   0.0541771   0.429727   
0.264979   0.388684   0.0584067   0.358511   
0.256495   0.321279   0.0453485   0.304586   
0.241907   0.279857   0.037284   0.270758   
0.226847   0.251231   0.0287335   0.245077   
0.213421   0.22993   0.0236103   0.225869   
0.201492   0.213325   0.019358   0.210351   
0.191149   0.199901   0.0164033   0.197724   
0.182061   0.188763   0.0140139   0.187084   
0.174072   0.179317   0.0121813   0.178008   
0.166987   0.17118   0.0107098   0.170137   
0.0497639   0.00381576   -0.00915175   0.0505211   
0.0533   0.00337406   -0.0118022   0.0555905   
0.0624451   0.00420288   -0.0152517   0.0659731   
0.0742876   0.00653144   -0.0208344   0.0798643   
0.0894916   0.0110462   -0.0297473   0.0989795   
0.110509   0.0194681   -0.0430592   0.1265   
0.132352   0.0376285   -0.0672177   0.165854   
0.16386   0.0762562   -0.100726   0.22496   
0.167259   0.171379   -0.151375   0.312129   
0.142738   0.3087   -0.153996   0.377823   
0.114816   0.423779   -0.0785748   0.403283   
0.154277   0.445955   0.00792913   0.392512   
0.183851   0.377587   0.0402224   0.334375   
0.200022   0.328049   0.0489015   0.298633   
0.203804   0.287125   0.0442683   0.267093   
0.200708   0.257969   0.0388332   0.244088   
0.194351   0.234874   0.0331871   0.224932   
0.187623   0.217383   0.0285937   0.210058   
0.180464   0.203009   0.0247224   0.197428   
0.173819   0.191286   0.0215928   0.186957   
0.167488   0.181341   0.0190093   0.1779   
0.16164   0.172829   0.0168699   0.170044   
0.0573985   0.00468782   -0.016155   0.0618906   
0.0678243   0.0068314   -0.0199748   0.0733516   
0.0776923   0.00990278   -0.0261528   0.0861202   
0.0901492   0.0151965   -0.0344382   0.102693   
0.103955   0.02338   -0.0463501   0.123967   
0.120583   0.0393198   -0.0630886   0.152596   
0.135146   0.0650919   -0.0861326   0.189634   
0.14646   0.11955   -0.112758   0.237437   
0.141498   0.197386   -0.133382   0.290561   
0.121815   0.299786   -0.123493   0.337556   
0.108637   0.373984   -0.0796657   0.360663   
0.114639   0.379335   -0.0203241   0.338806   
0.137698   0.3617   0.0180263   0.317738   
0.155539   0.322558   0.0355316   0.2861   
0.167691   0.290167   0.0407707   0.262003   
0.171554   0.261612   0.0399556   0.240375   
0.1724   0.23952   0.0370458   0.223418   
0.17008   0.221243   0.0334963   0.208837   
0.166861   0.206528   0.0300713   0.196845   
0.162799   0.194203   0.0269382   0.186492   
0.1586   0.18384   0.0241922   0.177623   
0.15436   0.174955   0.0218095   0.169874   
0.070575   0.00949269   -0.0236074   0.0779289   
0.0777849   0.0128357   -0.0294579   0.0884314   
0.0874693   0.0179012   -0.03678   0.102293   
0.0978388   0.0257175   -0.0466114   0.119313   
0.10901   0.0381888   -0.0595123   0.140726   
0.119066   0.0576891   -0.0756531   0.166752   
0.125924   0.0885491   -0.0945917   0.198469   
0.12556   0.132731   -0.112368   0.233659   
0.115371   0.193431   -0.120682   0.268519   
0.101542   0.259332   -0.109866   0.295707   
0.0916902   0.310638   -0.0763001   0.306408   
0.0950976   0.336272   -0.035949   0.306628   
0.108932   0.329202   -0.0015643   0.290494   
0.124775   0.310096   0.0204459   0.272562   
0.137141   0.28521   0.0312895   0.252934   
0.145874   0.262094   0.0355528   0.235652   
0.150191   0.241443   0.0359161   0.220135   
0.152035   0.22411   0.0345531   0.207   
0.151771   0.209371   0.0323421   0.195531   
0.150401   0.196952   0.0299286   0.185677   
0.148231   0.18632   0.0275233   0.177036   
0.145631   0.177156   0.0252626   0.169434   
0.0759876   0.0146423   -0.0313534   0.0884589   
0.0840979   0.0196476   -0.037712   0.100363   
0.0919902   0.0267114   -0.0459572   0.114257   
0.100288   0.0371031   -0.0560994   0.130976   
0.107706   0.0520424   -0.0682929   0.15065   
0.113406   0.0739137   -0.0821148   0.173696   
0.115309   0.104411   -0.0958303   0.19927   
0.111786   0.145713   -0.106066   0.226251   
0.103257   0.194398   -0.10774   0.251402   
0.0915433   0.243355   -0.0962241   0.270373   
0.0842357   0.282089   -0.072874   0.280784   
0.0849415   0.301145   -0.0424886   0.278818   
0.0923403   0.303812   -0.0142564   0.270895   
0.103726   0.293017   0.00692375   0.25762   
0.115168   0.27669   0.0207205   0.243399   
0.124122   0.258291   0.0282628   0.229035   
0.130743   0.240899   0.0317446   0.215994   
0.134727   0.225004   0.0326183   0.204098   
0.136907   0.211117   0.0320787   0.193643   
0.137569   0.198957   0.0307491   0.184324   
0.137249   0.1884   0.0290742   0.176097   
0.136223   0.179167   0.0272827   0.168771   
0.0808091   0.0207922   -0.037948   0.0979918   
0.0868678   0.0271184   -0.0449291   0.10946   
0.0932979   0.0358734   -0.0531358   0.122942   
0.0990329   0.0477949   -0.0627341   0.138439   
0.103619   0.0642265   -0.073423   0.15614   
0.105829   0.0861709   -0.0843738   0.175678   
0.104721   0.114689   -0.0940039   0.196519   
0.0998743   0.149218   -0.0996589   0.217103   
0.0916378   0.187577   -0.0982567   0.23528   
0.083387   0.22518   -0.087957   0.249182   
0.0775259   0.255266   -0.0689676   0.256224   
0.0766573   0.274094   -0.0458157   0.257468   
0.0815407   0.279934   -0.0227594   0.252468   
0.0895576   0.275911   -0.00331822   0.243866   
0.0986367   0.265366   0.0109076   0.233089   
0.107248   0.252032   0.0203806   0.221897   
0.114172   0.237763   0.0259723   0.210818   
0.119443   0.22409   0.0288703   0.200543   
0.122993   0.2114   0.0299268   0.191058   
0.125206   0.199994   0.0298527   0.182503   
0.126304   0.189789   0.029086   0.174755   
0.126559   0.180706   0.0279334   0.167758   
0.0823424   0.0270949   -0.0437347   0.104983   
0.0875638   0.0346147   -0.0505442   0.116184   
0.0921444   0.0444265   -0.0583517   0.128784   
0.0959562   0.0573811   -0.0669166   0.142925   
0.0982231   0.0740834   -0.0758016   0.158421   
0.0984163   0.0953004   -0.0841244   0.174984   
0.0960106   0.121125   -0.0904635   0.191862   
0.0908977   0.150862   -0.0930265   0.208016   
0.0842041   0.182438   -0.0901127   0.2222   
0.0771873   0.212111   -0.0807353   0.232662   
0.0724333   0.236582   -0.0658323   0.23892   
0.0714078   0.252781   -0.0472604   0.240099   
0.073927   0.260078   -0.028195   0.2372   
0.0795721   0.259604   -0.0111244   0.231171   
0.0867351   0.253552   0.00268528   0.223252   
0.0940388   0.243998   0.0128459   0.214309   
0.100745   0.232949   0.0198012   0.205238   
0.106279   0.221456   0.0241559   0.196347   
0.110614   0.210354   0.0266122   0.187991   
0.113747   0.199931   0.0277101   0.180202   
0.115872   0.190365   0.0278957   0.173037   
0.117175   0.18164   0.0275003   0.166458   
0.0827865   0.0334167   -0.0482788   0.110437   
0.086526   0.0416742   -0.0547862   0.120922   
0.0897445   0.0522264   -0.0618413   0.132543   
0.0918891   0.0654512   -0.0692047   0.145193   