<?xml version="1.0"?> 
<VTKFile type="StructuredGrid" version="0.1"> 
<StructuredGrid WholeExtent="0 32 0 1 0 32"> 
<Piece Extent="0 32 0 1 0 32"> 
<PointData Scalars="disp">
<DataArray type="Float32" Name="disp" format="ascii" NumberOfComponents="1"> 
0
 3.41936e-07
 4.12925e-07
 -2.97133e-08
 -1.20561e-06
 -3.30679e-06
 -6.49619e-06
 -1.09078e-05
 -1.66471e-05
 -2.37935e-05
 -3.24028e-05
 -4.25108e-05
 -5.41369e-05
 -6.72873e-05
 -8.19581e-05
 -9.81362e-05
 -0.0001158
 -0.000134915
 -0.000155432
 -0.000177277
 -0.000200338
 -0.000224456
 -0.000249411
 -0.000274903
 -0.000300548
 -0.000325863
 -0.000350271
 -0.000373101
 -0.000393604
 -0.000410968
 -0.000424355
 -0.000432932
 -0.000435933
 0
 -3.22933e-07
 -8.83722e-07
 -1.91563e-06
 -3.62976e-06
 -6.21212e-06
 -9.82211e-06
 -1.45918e-05
 -2.06266e-05
 -2.80071e-05
 -3.67917e-05
 -4.70198e-05
 -5.87148e-05
 -7.18871e-05
 -8.65365e-05
 -0.000102654
 -0.000120219
 -0.000139202
 -0.000159551
 -0.000181193
 -0.000204015
 -0.00022786
 -0.000252504
 -0.000277653
 -0.000302925
 -0.000327847
 -0.000351853
 -0.000374288
 -0.000394419
 -0.000411458
 -0.000424586
 -0.000432995
 -0.000435937
 0
 3.13295e-07
 3.56846e-07
 -1.11205e-07
 -1.30974e-06
 -3.43036e-06
 -6.63585e-06
 -1.10601e-05
 -1.68088e-05
 -2.39612e-05
 -3.25728e-05
 -4.26792e-05
 -5.42993e-05
 -6.74386e-05
 -8.20923e-05
 -9.82465e-05
 -0.000115878
 -0.000134954
 -0.000155422
 -0.000177209
 -0.000200203
 -0.000224248
 -0.000249121
 -0.000274528
 -0.000300085
 -0.000325312
 -0.000349633
 -0.000372381
 -0.000392808
 -0.000410105
 -0.000423437
 -0.000431976
 -0.000434964
 0
 -3.48478e-07
 -9.34312e-07
 -1.9899e-06
 -3.72556e-06
 -6.32679e-06
 -9.95272e-06
 -1.47352e-05
 -2.07797e-05
 -2.81665e-05
 -3.69539e-05
 -4.71808e-05
 -5.887e-05
 -7.20314e-05
 -8.66638e-05
 -0.000102757
 -0.000120291
 -0.000139233
 -0.000159533
 -0.000181117
 -0.000203873
 -0.000227643
 -0.000252207
 -0.00027727
 -0.000302455
 -0.000327289
 -0.00035121
 -0.000373562
 -0.000393618
 -0.000410591
 -0.000423665
 -0.000432037
 -0.000434965
 0
 2.93804e-07
 3.19349e-07
 -1.64573e-07
 -1.37646e-06
 -3.50781e-06
 -6.72151e-06
 -1.11517e-05
 -1.69042e-05
 -2.40584e-05
 -3.26697e-05
 -4.27736e-05
 -5.43884e-05
 -6.75192e-05
 -8.21604e-05
 -9.82976e-05
 -0.000115907
 -0.000134955
 -0.000155391
 -0.000177139
 -0.000200091
 -0.00022409
 -0.000248915
 -0.000274273
 -0.000299781
 -0.000324962
 -0.000349241
 -0.000371949
 -0.00039234
 -0.000409605
 -0.000422909
 -0.000431429
 -0.000434409
 0
 -3.65057e-07
 -9.66688e-07
 -2.0367e-06
 -3.78492e-06
 -6.39664e-06
 -1.00309e-05
 -1.48198e-05
 -2.08685e-05
 -2.82576e-05
 -3.70451e-05
 -4.72696e-05
 -5.89536e-05
 -7.21062e-05
 -8.6726e-05
 -0.000102802
 -0.000120313
 -0.000139228
 -0.000159495
 -0.00018104
 -0.000203754
 -0.000227478
 -0.000251994
 -0.00027701
 -0.000302147
 -0.000326936
 -0.000350814
 -0.000373127
 -0.000393148
 -0.000410088
 -0.000423136
 -0.000431489
 -0.000434409
 0
 2.82068e-07
 2.97294e-07
 -1.95022e-07
 -1.41325e-06
 -3.54908e-06
 -6.76568e-06
 -1.11976e-05
 -1.69509e-05
 -2.41051e-05
 -3.27157e-05
 -4.28176e-05
 -5.44288e-05
 -6.75538e-05
 -8.21864e-05
 -9.83117e-05
 -0.000115906
 -0.000134935
 -0.000155347
 -0.00017707
 -0.000199995
 -0.000223966
 -0.000248766
 -0.000274102
 -0.000299592
 -0.000324761
 -0.000349032
 -0.000371736
 -0.000392126
 -0.00040939
 -0.000422693
 -0.00043121
 -0.000434188
 0
 -3.74522e-07
 -9.84846e-07
 -2.06233e-06
 -3.8166e-06
 -6.43295e-06
 -1.00706e-05
 -1.48617e-05
 -2.09118e-05
 -2.83014e-05
 -3.70883e-05
 -4.7311e-05
 -5.89912e-05
 -7.21377e-05
 -8.67484e-05
 -0.000102812
 -0.000120307
 -0.000139202
 -0.000159447
 -0.000180967
 -0.000203654
 -0.000227351
 -0.000251843
 -0.000276836
 -0.000301956
 -0.000326733
 -0.000350604
 -0.000372914
 -0.000392933
 -0.000409873
 -0.000422919
 -0.000431269
 -0.000434188
 0
 2.76209e-07
 2.86682e-07
 -2.08913e-07
 -1.42902e-06
 -3.56565e-06
 -6.78243e-06
 -1.12143e-05
 -1.69676e-05
 -2.4122e-05
 -3.27327e-05
 -4.28342e-05
 -5.44439e-05
 -6.75656e-05
 -8.21923e-05
 -9.83086e-05
 -0.000115891
 -0.000134904
 -0.000155299
 -0.000177003
 -0.000199908
 -0.000223863
 -0.00024865
 -0.00027398
 -0.000299472
 -0.000324651
 -0.000348941
 -0.00037167
 -0.000392087
 -0.000409377
 -0.000422701
 -0.000431231
 -0.000434214
 0
 -3.78867e-07
 -9.9295e-07
 -2.0733e-06
 -3.82955e-06
 -6.44715e-06
 -1.00856e-05
 -1.48773e-05
 -2.0928e-05
 -2.83181e-05
 -3.71052e-05
 -4.73272e-05
 -5.90055e-05
 -7.2148e-05
 -8.6752e-05
 -0.000102806
 -0.000120289
 -0.000139168
 -0.000159394
 -0.000180896
 -0.000203564
 -0.000227246
 -0.000251725
 -0.000276714
 -0.000301836
 -0.000326624
 -0.000350514
 -0.000372849
 -0.000392895
 -0.000409861
 -0.000422927
 -0.000431289
 -0.000434213
 0
 2.74353e-07
 2.8368e-07
 -2.12149e-07
 -1.43177e-06
 -3.56759e-06
 -6.78371e-06
 -1.12154e-05
 -1.69694e-05
 -2.4125e-05
 -3.27372e-05
 -4.284e-05
 -5.44499e-05
 -6.75697e-05
 -8.2192e-05
 -9.83006e-05
 -0.000115872
 -0.000134871
 -0.000155249
 -0.000176936
 -0.000199825
 -0.000223767
 -0.000248548
 -0.00027388
 -0.000299385
 -0.000324589
 -0.000348915
 -0.00037169
 -0.000392156
 -0.000409495
 -0.000422858
 -0.000431415
 -0.000434406
 0
 -3.79885e-07
 -9.94654e-07
 -2.07522e-06
 -3.83133e-06
 -6.44871e-06
 -1.00872e-05
 -1.48794e-05
 -2.0931e-05
 -2.83225e-05
 -3.7111e-05
 -4.73338e-05
 -5.90115e-05
 -7.21513e-05
 -8.67501e-05
 -0.000102796
 -0.000120267
 -0.000139131
 -0.000159341
 -0.000180826
 -0.000203479
 -0.000227148
 -0.000251623
 -0.000276615
 -0.000301752
 -0.000326566
 -0.000350492
 -0.000372871
 -0.000392966
 -0.000409979
 -0.000423084
 -0.000431473
 -0.000434405
 0
 2.7495e-07
 2.85198e-07
 -2.09345e-07
 -1.42756e-06
 -3.56227e-06
 -6.77797e-06
 -1.12103e-05
 -1.69658e-05
 -2.41239e-05
 -3.2739e-05
 -4.28443e-05
 -5.44554e-05
 -6.75743e-05
 -8.21927e-05
 -9.8294e-05
 -0.000115854
 -0.000134839
 -0.000155201
 -0.000176869
 -0.000199743
 -0.000223672
 -0.000248448
 -0.000273785
 -0.000299309
 -0.000324546
 -0.000348919
 -0.000371752
 -0.000392283
 -0.000409685
 -0.000423104
 -0.000431697
 -0.000434703
 0
 -3.79045e-07
 -9.92884e-07
 -2.07244e-06
 -3.82765e-06
 -6.44454e-06
 -1.00832e-05
 -1.48764e-05
 -2.093e-05
 -2.83239e-05
 -3.71148e-05
 -4.73394e-05
 -5.90175e-05
 -7.21554e-05
 -8.67493e-05
 -0.000102787
 -0.000120246
 -0.000139096
 -0.000159289
 -0.000180756
 -0.000203394
 -0.000227052
 -0.000251522
 -0.000276521
 -0.000301677
 -0.000326525
 -0.000350499
 -0.000372937
 -0.000393096
 -0.000410172
 -0.000423331
 -0.000431756
 -0.000434701
 0
 2.76801e-07
 2.88915e-07
 -2.03844e-07
 -1.42063e-06
 -3.5546e-06
 -6.77059e-06
 -1.12044e-05
 -1.69626e-05
 -2.41241e-05
 -3.2743e-05
 -4.28515e-05
 -5.44643e-05
 -6.75825e-05
 -8.21971e-05
 -9.82908e-05
 -0.000115839
 -0.000134809
 -0.000155153
 -0.000176803
 -0.000199658
 -0.000223573
 -0.000248343
 -0.000273685
 -0.000299228
 -0.000324501
 -0.000348927
 -0.000371826
 -0.000392432
 -0.000409911
 -0.000423395
 -0.000432034
 -0.000435056
 0
 -3.77385e-07
 -9.89664e-07
 -2.06788e-06
 -3.82222e-06
 -6.43896e-06
 -1.00784e-05
 -1.48735e-05
 -2.09297e-05
 -2.83268e-05
 -3.7121e-05
 -4.7348e-05
 -5.90268e-05
 -7.2163e-05
 -8.6752e-05
 -0.000102781
 -0.000120228
 -0.000139063
 -0.000159238
 -0.000180686
 -0.000203307
 -0.000226952
 -0.000251418
 -0.000276423
 -0.0003016
 -0.000326484
 -0.000350511
 -0.000373015
 -0.000393249
 -0.000410399
 -0.000423623
 -0.000432093
 -0.000435055
 0
 2.79091e-07
 2.9329e-07
 -1.97773e-07
 -1.4135e-06
 -3.54736e-06
 -6.76437e-06
 -1.12004e-05
 -1.6962e-05
 -2.41276e-05
 -3.27506e-05
 -4.28625e-05
 -5.44771e-05
 -6.75947e-05
 -8.22051e-05
 -9.8291e-05
 -0.000115828
 -0.000134782
 -0.000155107
 -0.000176736
 -0.000199572
 -0.000223471
 -0.000248232
 -0.000273577
 -0.000299138
 -0.000324446
 -0.000348926
 -0.000371896
 -0.000392584
 -0.000410146
 -0.000423704
 -0.000432396
 -0.000435437
 0
 -3.75575e-07
 -9.8627e-07
 -2.06333e-06
 -3.81717e-06
 -6.4343e-06
 -1.00752e-05
 -1.48727e-05
 -2.09322e-05
 -2.8333e-05
 -3.71308e-05
 -4.73604e-05
 -5.90399e-05
 -7.21744e-05
 -8.67583e-05
 -0.000102778
 -0.000120213
 -0.000139031
 -0.000159188
 -0.000180616
 -0.000203217
 -0.000226848
 -0.000251306
 -0.000276316
 -0.000301512
 -0.000326433
 -0.000350514
 -0.00037309
 -0.000393405
 -0.000410637
 -0.000423934
 -0.000432455
 -0.000435436
 0
 2.81312e-07
 2.97404e-07
 -1.92325e-07
 -1.40752e-06
 -3.54184e-06
 -6.76047e-06
 -1.11993e-05
 -1.69645e-05
 -2.41344e-05
 -3.27617e-05
 -4.28769e-05
 -5.44932e-05
 -6.76099e-05
 -8.22161e-05
 -9.82939e-05
 -0.000115818
 -0.000134756
 -0.000155062
 -0.00017667
 -0.000199484
 -0.000223365
 -0.000248114
 -0.000273459
 -0.000299035
 -0.000324377
 -0.000348911
 -0.000371954
 -0.000392727
 -0.000410378
 -0.000424016
 -0.000432764
 -0.000435826
 0
 -3.73982e-07
 -9.83374e-07
 -2.05967e-06
 -3.81348e-06
 -6.4315e-06
 -1.00743e-05
 -1.48746e-05
 -2.09377e-05
 -2.83425e-05
 -3.71437e-05
 -4.73759e-05
 -5.90562e-05
 -7.21887e-05
 -8.67674e-05
 -0.000102778
 -0.0001202
 -0.000139002
 -0.000159139
 -0.000180546
 -0.000203126
 -0.00022674
 -0.000251188
 -0.000276199
 -0.000301412
 -0.000326368
 -0.000350504
 -0.000373152
 -0.000393551
 -0.000410872
 -0.000424248
 -0.000432824
 -0.000435825
 0
 2.83204e-07
 3.00815e-07
 -1.88021e-07
 -1.40314e-06
 -3.53838e-06
 -6.75897e-06
 -1.12008e-05
 -1.69698e-05
 -2.41439e-05
 -3.27752e-05
 -4.28936e-05
 -5.45114e-05
 -6.7627e-05
 -8.2229e-05
 -9.82987e-05
 -0.000115811
 -0.000134732
 -0.000155018
 -0.000176603
 -0.000199395
 -0.000223255
 -0.000247991
 -0.000273332
 -0.000298921
 -0.000324294
 -0.00034888
 -0.000371996
 -0.000392856
 -0.0004106
 -0.000424323
 -0.000433132
 -0.000436216
 0
 -3.72766e-07
 -9.81248e-07
 -2.05718e-06
 -3.81138e-06
 -6.43067e-06
 -1.00756e-05
 -1.4879e-05
 -2.09457e-05
 -2.83543e-05
 -3.7159e-05
 -4.73935e-05
 -5.90744e-05
 -7.22049e-05
 -8.67783e-05
 -0.00010278
 -0.000120189
 -0.000138974
 -0.000159091
 -0.000180476
 -0.000203034
 -0.000226628
 -0.000251064
 -0.000276073
 -0.000301299
 -0.000326288
 -0.000350478
 -0.000373198
 -0.000393685
 -0.000411097
 -0.000424556
 -0.000433192
 -0.000436216
 0
 2.84674e-07
 3.03385e-07
 -1.8496e-07
 -1.40037e-06
 -3.53679e-06
 -6.75951e-06
 -1.12043e-05
 -1.6977e-05
 -2.41551e-05
 -3.27902e-05
 -4.29116e-05
 -5.45307e-05
 -6.76452e-05
 -8.22431e-05
 -9.83049e-05
 -0.000115805
 -0.00013471
 -0.000154976
 -0.000176539
 -0.000199306
 -0.000223145
 -0.000247864
 -0.000273199
 -0.000298796
 -0.000324198
 -0.000348835
 -0.000372022
 -0.000392971
 -0.000410811
 -0.000424623
 -0.000433496
 -0.000436605
 0
 -3.7195e-07
 -9.79906e-07
 -2.05584e-06
 -3.81073e-06
 -6.43149e-06
 -1.00787e-05
 -1.48851e-05
 -2.09553e-05
 -2.83675e-05
 -3.71755e-05
 -4.74122e-05
 -5.90936e-05
 -7.22221e-05
 -8.67905e-05
 -0.000102784
 -0.00012018
 -0.000138948
 -0.000159045
 -0.000180407
 -0.000202941
 -0.000226515
 -0.000250935
 -0.000275939
 -0.000301176
 -0.000326195
 -0.000350436
 -0.000373229
 -0.000393804
 -0.000411312
 -0.000424858
 -0.000433557
 -0.000436604
 0
 2.85731e-07
 3.05165e-07
 -1.83005e-07
 -1.39894e-06
 -3.53666e-06
 -6.7615e-06
 -1.12092e-05
 -1.69853e-05
 -2.41672e-05
 -3.28057e-05
 -4.29299e-05
 -5.45502e-05
 -6.76638e-05
 -8.22578e-05
 -9.8312e-05
 -0.000115801
 -0.00013469
 -0.000154936
 -0.000176475
 -0.000199218
 -0.000223033
 -0.000247734
 -0.00027306
 -0.000298663
 -0.00032409
 -0.000348775
 -0.000372034
 -0.000393074
 -0.000411012
 -0.000424917
 -0.000433858
 -0.000436992
 0
 -3.71487e-07
 -9.79237e-07
 -2.05543e-06
 -3.81119e-06
 -6.43352e-06
 -1.0083e-05
 -1.48923e-05
 -2.09659e-05
 -2.83814e-05
 -3.71924e-05
 -4.74313e-05
 -5.91131e-05
 -7.22398e-05
 -8.68033e-05
 -0.000102788
 -0.000120172
 -0.000138924
 -0.000159
 -0.000180339
 -0.00020285
 -0.0002264
 -0.000250803
 -0.0002758
 -0.000301045
 -0.000326091
 -0.000350381
 -0.000373245
 -0.00039391
 -0.000411516
 -0.000425153
 -0.000433919
 -0.000436991
 0
 2.86438e-07
 3.06296e-07
 -1.81922e-07
 -1.3985e-06
 -3.53754e-06
 -6.76441e-06
 -1.12147e-05
 -1.69941e-05
 -2.41794e-05
 -3.28213e-05
 -4.2948e-05
 -5.45697e-05
 -6.76825e-05
 -8.22728e-05
 -9.832e-05
 -0.000115798
 -0.000134672
 -0.000154898
 -0.000176414
 -0.000199132
 -0.000222923
 -0.000247602
 -0.000272917
 -0.000298522
 -0.000323972
 -0.000348703
 -0.000372033
 -0.000393164
 -0.000411205
 -0.000425207
 -0.000434219
 -0.000437381
 0
 -3.71299e-07
 -9.79079e-07
 -2.0557e-06
 -3.81242e-06
 -6.43631e-06
 -1.0088e-05
 -1.49e-05
 -2.09766e-05
 -2.83954e-05
 -3.72093e-05
 -4.74501e-05
 -5.91325e-05
 -7.22576e-05
 -8.68167e-05
 -0.000102794
 -0.000120166
 -0.000138901
 -0.000158958
 -0.000180274
 -0.00020276
 -0.000226286
 -0.00025067
 -0.000275656
 -0.000300905
 -0.000325975
 -0.000350313
 -0.000373249
 -0.000394005
 -0.000411712
 -0.000425445
 -0.000434281
 -0.00043738
 0
 2.86876e-07
 3.06941e-07
 -1.81462e-07
 -1.39873e-06
 -3.53904e-06
 -6.76778e-06
 -1.12206e-05
 -1.70029e-05
 -2.41914e-05
 -3.28364e-05
 -4.29657e-05
 -5.45887e-05
 -6.77009e-05
 -8.22881e-05
 -9.83288e-05
 -0.000115796
 -0.000134655
 -0.000154863
 -0.000176356
 -0.000199049
 -0.000222813
 -0.00024747
 -0.000272771
 -0.000298376
 -0.000323845
 -0.00034862
 -0.000372019
 -0.000393244
 -0.000411392
 -0.000425495
 -0.000434584
 -0.000437774
 0
 -3.71305e-07
 -9.7927e-07
 -2.05641e-06
 -3.81411e-06
 -6.43949e-06
 -1.00932e-05
 -1.49077e-05
 -2.09873e-05
 -2.8409e-05
 -3.72257e-05
 -4.74685e-05
 -5.91515e-05
 -7.22753e-05
 -8.68305e-05
 -0.0001028
 -0.000120161
 -0.000138881
 -0.000158919
 -0.000180211
 -0.000202672
 -0.000226173
 -0.000250536
 -0.000275509
 -0.00030076
 -0.000325851
 -0.000350233
 -0.00037324
 -0.00039409
 -0.000411902
 -0.000425736
 -0.000434647
 -0.000437774
 0
 2.87126e-07
 3.07256e-07
 -1.81402e-07
 -1.39935e-06
 -3.54084e-06
 -6.77131e-06
 -1.12264e-05
 -1.70115e-05
 -2.4203e-05
 -3.28509e-05
 -4.29827e-05
 -5.46071e-05
 -6.77191e-05
 -8.23035e-05
 -9.83384e-05
 -0.000115796
 -0.000134641
 -0.00015483
 -0.000176301
 -0.000198968
 -0.000222706
 -0.000247339
 -0.000272622
 -0.000298224
 -0.000323709
 -0.000348526
 -0.000371995
 -0.000393314
 -0.000411573
 -0.000425785
 -0.000434955
 -0.000438176
 0
 -3.71432e-07
 -9.79672e-07
 -2.05737e-06
 -3.81601e-06
 -6.44279e-06
 -1.00984e-05
 -1.49153e-05
 -2.09975e-05
 -2.84221e-05
 -3.72414e-05
 -4.74863e-05
 -5.91701e-05
 -7.22929e-05
 -8.68446e-05
 -0.000102808
 -0.000120158
 -0.000138864
 -0.000158882
 -0.000180152
 -0.000202587
 -0.000226062
 -0.000250401
 -0.00027536
 -0.000300608
 -0.000325717
 -0.000350143
 -0.00037322
 -0.000394164
 -0.000412087
 -0.000426027
 -0.000435018
 -0.000438176
 0
 2.87256e-07
 3.07369e-07
 -1.81571e-07
 -1.40016e-06
 -3.54273e-06
 -6.77478e-06
 -1.1232e-05
 -1.70196e-05
 -2.42139e-05
 -3.28647e-05
 -4.29989e-05
 -5.46249e-05
 -6.77369e-05
 -8.23191e-05
 -9.83488e-05
 -0.000115797
 -0.00013463
 -0.000154801
 -0.00017625
 -0.000198891
 -0.000222601
 -0.000247208
 -0.000272472
 -0.000298067
 -0.000323565
 -0.000348421
 -0.000371958
 -0.000393375
 -0.000411749
 -0.000426076
 -0.000435334
 -0.000438589
 0
 -3.71626e-07
 -9.80182e-07
 -2.05844e-06
 -3.81796e-06
 -6.44603e-06
 -1.01034e-05
 -1.49224e-05
 -2.10072e-05
 -2.84345e-05
 -3.72564e-05
 -4.75033e-05
 -5.91881e-05
 -7.23103e-05
 -8.68589e-05
 -0.000102816
 -0.000120157
 -0.000138849
 -0.000158849
 -0.000180096
 -0.000202506
 -0.000225954
 -0.000250268
 -0.000275208
 -0.000300452
 -0.000325575
 -0.000350041
 -0.000373188
 -0.000394229
 -0.000412266
 -0.00042632
 -0.000435398
 -0.000438589
 0
 2.87317e-07
 3.07372e-07
 -1.81847e-07
 -1.40103e-06
 -3.54459e-06
 -6.77808e-06
 -1.12372e-05
 -1.70271e-05
 -2.42241e-05
 -3.28777e-05
 -4.30144e-05
 -5.4642e-05
 -6.77542e-05
 -8.23347e-05
 -9.83599e-05
 -0.000115801
 -0.000134621
 -0.000154775
 -0.000176202
 -0.000198818
 -0.0002225
 -0.00024708
 -0.000272321
 -0.000297906
 -0.000323413
 -0.000348304
 -0.000371909
 -0.000393424
 -0.000411919
 -0.000426369
 -0.000435723
 -0.000439016
 0
 -3.71847e-07
 -9.80726e-07
 -2.05951e-06
 -3.81985e-06
 -6.44912e-06
 -1.01081e-05
 -1.49291e-05
 -2.10162e-05
 -2.84461e-05
 -3.72705e-05
 -4.75195e-05
 -5.92055e-05
 -7.23273e-05
 -8.68736e-05
 -0.000102825
 -0.000120157
 -0.000138836
 -0.000158819
 -0.000180045
 -0.000202428
 -0.000225849
 -0.000250136
 -0.000275055
 -0.00030029
 -0.000325425
 -0.000349928
 -0.000373143
 -0.000394284
 -0.000412441
 -0.000426617
 -0.000435788
 -0.000439015
 0
 2.87345e-07
 3.07329e-07
 -1.82151e-07
 -1.40187e-06
 -3.54632e-06
 -6.78113e-06
 -1.1242e-05
 -1.70342e-05
 -2.42337e-05
 -3.28899e-05
 -4.30289e-05
 -5.46583e-05
 -6.77711e-05
 -8.23503e-05
 -9.83716e-05
 -0.000115805
 -0.000134614
 -0.000154753
 -0.000176159
 -0.000198749
 -0.000222403
 -0.000246953
 -0.00027217
 -0.00029774
 -0.000323253
 -0.000348176
 -0.000371846
 -0.000393462
 -0.000412084
 -0.000426667
 -0.000436125
 -0.000439459
 0
 -3.7207e-07
 -9.8126e-07
 -2.06053e-06
 -3.82163e-06
 -6.45199e-06
 -1.01124e-05
 -1.49354e-05
 -2.10247e-05
 -2.8457e-05
 -3.72838e-05
 -4.75349e-05
 -5.92222e-05
 -7.2344e-05
 -8.68883e-05
 -0.000102836
 -0.00012016
 -0.000138827
 -0.000158793
 -0.000179997
 -0.000202355
 -0.000225747
 -0.000250006
 -0.000274902
 -0.000300124
 -0.000325266
 -0.000349803
 -0.000373085
 -0.000394327
 -0.00041261
 -0.000426916
 -0.000436191
 -0.000439458
 0
 2.87362e-07
 3.07279e-07
 -1.82438e-07
 -1.40264e-06
 -3.54791e-06
 -6.78393e-06
 -1.12464e-05
 -1.70407e-05
 -2.42425e-05
 -3.29012e-05
 -4.30426e-05
 -5.46738e-05
 -6.77874e-05
 -8.23657e-05
 -9.83839e-05
 -0.000115811
 -0.00013461
 -0.000154733
 -0.00017612
 -0.000198685
 -0.00022231
 -0.00024683
 -0.000272019
 -0.000297572
 -0.000323084
 -0.000348035
 -0.000371769
 -0.000393487
 -0.000412243
 -0.000426969
 -0.000436542
 -0.000439922
 0
 -3.7228e-07
 -9.81759e-07
 -2.06148e-06
 -3.82327e-06
 -6.45463e-06
 -1.01164e-05
 -1.49411e-05
 -2.10325e-05
 -2.84671e-05
 -3.72963e-05
 -4.75494e-05
 -5.92382e-05
 -7.23603e-05
 -8.69031e-05
 -0.000102846
 -0.000120163
 -0.00013882
 -0.00015877
 -0.000179954
 -0.000202287
 -0.00022565
 -0.000249879
 -0.000274749
 -0.000299955
 -0.000325099
 -0.000349666
 -0.000373013
 -0.000394357
 -0.000412774
 -0.000427221
 -0.000436609
 -0.000439922
 0
 2.87381e-07
 3.0724e-07
 -1.82687e-07
 -1.40333e-06
 -3.54934e-06
 -6.78647e-06
 -1.12505e-05
 -1.70466e-05
 -2.42507e-05
 -3.29117e-05
 -4.30554e-05
 -5.46885e-05
 -6.7803e-05
 -8.23809e-05
 -9.83964e-05
 -0.000115818
 -0.000134608
 -0.000154718
 -0.000176086
 -0.000198626
 -0.000222222
 -0.000246711
 -0.00027187
 -0.000297401
 -0.000322909
 -0.000347883
 -0.000371678
 -0.000393499
 -0.000412396
 -0.000427277
 -0.00043698
 -0.000440412
 0
 -3.7247e-07
 -9.8221e-07
 -2.06234e-06
 -3.82476e-06
 -6.45704e-06
 -1.01201e-05
 -1.49464e-05
 -2.10397e-05
 -2.84765e-05
 -3.73079e-05
 -4.75631e-05
 -5.92533e-05
 -7.23759e-05
 -8.69178e-05
 -0.000102858
 -0.000120169
 -0.000138815
 -0.000158751
 -0.000179916
 -0.000202224
 -0.000225558
 -0.000249756
 -0.000274597
 -0.000299782
 -0.000324924
 -0.000349516
 -0.000372926
 -0.000394374
 -0.000412932
 -0.000427533
 -0.000437047
 -0.000440411
 0
 2.87407e-07
 3.07221e-07
 -1.82891e-07
 -1.40393e-06
 -3.55062e-06
 -6.78877e-06
 -1.12542e-05
 -1.7052e-05
 -2.42581e-05
 -3.29214e-05
 -4.30673e-05
 -5.47022e-05
 -6.78178e-05
 -8.23956e-05
 -9.84091e-05
 -0.000115826
 -0.000134608
 -0.000154705
 -0.000176056
 -0.000198573
 -0.00022214
 -0.000246596
 -0.000271723
 -0.000297229
 -0.000322727
 -0.000347719
 -0.000371572
 -0.000393498
 -0.000412545
 -0.000427597
 -0.000437443
 -0.000440935
 0
 -3.72638e-07
 -9.82612e-07
 -2.06311e-06
 -3.82611e-06
 -6.45922e-06
 -1.01234e-05
 -1.49512e-05
 -2.10463e-05
 -2.84851e-05
 -3.73185e-05
 -4.75757e-05
 -5.92675e-05
 -7.23909e-05
 -8.69321e-05
 -0.00010287
 -0.000120175
 -0.000138813
 -0.000158736
 -0.000179882
 -0.000202166
 -0.000225472
 -0.000249638
 -0.000274446
 -0.000299608
 -0.000324742
 -0.000349355
 -0.000372825
 -0.000394379
 -0.000413086
 -0.000427856
 -0.000437512
 -0.000440934
 0
 2.87439e-07
 3.07221e-07
 -1.83053e-07
 -1.40445e-06
 -3.55176e-06
 -6.79083e-06
 -1.12575e-05
 -1.70569e-05
 -2.42649e-05
 -3.29302e-05
 -4.30781e-05
 -5.47148e-05
 -6.78317e-05
 -8.24097e-05
 -9.84218e-05
 -0.000115835
 -0.00013461
 -0.000154696
 -0.00017603
 -0.000198525
 -0.000222064
 -0.000246487
 -0.00027158
 -0.000297057
 -0.000322541
 -0.000347546
 -0.000371454
 -0.000393487
 -0.000412692
 -0.000427933
 -0.000437944
 -0.000441505
 0
 -3.72784e-07
 -9.82966e-07
 -2.0638e-06
 -3.82731e-06
 -6.46118e-06
 -1.01264e-05
 -1.49555e-05
 -2.10522e-05
 -2.84929e-05
 -3.73283e-05
 -4.75874e-05
 -5.92807e-05
 -7.2405e-05
 -8.6946e-05
 -0.000102882
 -0.000120183
 -0.000138813
 -0.000158724
 -0.000179853
 -0.000202114
 -0.000225391
 -0.000249524
 -0.0002743
 -0.000299434
 -0.000324555
 -0.000349184
 -0.000372711
 -0.000394374
 -0.000413239
 -0.000428196
 -0.000438014
 -0.000441504
 0
 2.87478e-07
 3.07238e-07
 -1.8318e-07
 -1.4049e-06
 -3.55277e-06
 -6.79266e-06
 -1.12604e-05
 -1.70613e-05
 -2.4271e-05
 -3.29382e-05
 -4.3088e-05
 -5.47264e-05
 -6.78446e-05
 -8.2423e-05
 -9.84342e-05
 -0.000115845
 -0.000134613
 -0.00015469
 -0.000176009
 -0.000198483
 -0.000221995
 -0.000246385
 -0.000271443
 -0.000296887
 -0.000322353
 -0.000347367
 -0.000371326
 -0.000393469
 -0.000412844
 -0.000428295
 -0.000438495
 -0.000442137
 0
 -3.72911e-07
 -9.83276e-07
 -2.06441e-06
 -3.82838e-06
 -6.46294e-06
 -1.01291e-05
 -1.49594e-05
 -2.10576e-05
 -2.84999e-05
 -3.73371e-05
 -4.7598e-05
 -5.92929e-05
 -7.24181e-05
 -8.69592e-05
 -0.000102894
 -0.000120191
 -0.000138815
 -0.000158715
 -0.000179828
 -0.000202068
 -0.000225317
 -0.000249418
 -0.000274158
 -0.000299262
 -0.000324367
 -0.000349007
 -0.000372588
 -0.000394362
 -0.000413397
 -0.000428563
 -0.000438567
 -0.000442137
 0
 2.8752e-07
 3.07265e-07
 -1.83277e-07
 -1.40529e-06
 -3.55365e-06
 -6.79429e-06
 -1.12631e-05
 -1.70652e-05
 -2.42764e-05
 -3.29453e-05
 -4.30968e-05
 -5.47369e-05
 -6.78564e-05
 -8.24354e-05
 -9.84461e-05
 -0.000115854
 -0.000134618
 -0.000154686
 -0.000175991
 -0.000198446
 -0.000221932
 -0.00024629
 -0.000271312
 -0.000296723
 -0.000322167
 -0.000347186
 -0.000371195
 -0.000393449
 -0.000413008
 -0.000428695
 -0.000439116
 -0.000442856
 0
 -3.73021e-07
 -9.83546e-07
 -2.06494e-06
 -3.82933e-06
 -6.4645e-06
 -1.01315e-05
 -1.49629e-05
 -2.10624e-05
 -2.85062e-05
 -3.7345e-05
 -4.76075e-05
 -5.93039e-05
 -7.24302e-05
 -8.69716e-05
 -0.000102905
 -0.0001202
 -0.000138818
 -0.000158709
 -0.000179808
 -0.000202028
 -0.000225251
 -0.000249319
 -0.000274024
 -0.000299095
 -0.00032418
 -0.000348828
 -0.000372461
 -0.000394349
 -0.000413568
 -0.000428968
 -0.00043919
 -0.000442856
 0
 2.87562e-07
 3.07298e-07
 -1.83353e-07
 -1.40562e-06
 -3.55442e-06
 -6.79572e-06
 -1.12654e-05
 -1.70687e-05
 -2.42812e-05
 -3.29515e-05
 -4.31046e-05
 -5.47462e-05
 -6.7867e-05
 -8.24467e-05
 -9.84573e-05
 -0.000115864
 -0.000134623
 -0.000154684
 -0.000175978
 -0.000198415
 -0.000221876
 -0.000246204
 -0.000271191
 -0.000296567
 -0.000321987
 -0.000347009
 -0.000371067
 -0.000393437
 -0.000413194
 -0.000429147
 -0.000439828
 -0.000443688
 0
 -3.73114e-07
 -9.83778e-07
 -2.0654e-06
 -3.83016e-06
 -6.46586e-06
 -1.01336e-05
 -1.49659e-05
 -2.10665e-05
 -2.85116e-05
 -3.73519e-05
 -4.76159e-05
 -5.93137e-05
 -7.24411e-05
 -8.6983e-05
 -0.000102916
 -0.000120209
 -0.000138822
 -0.000158705
 -0.000179792
 -0.000201993
 -0.000225191
 -0.000249228
 -0.000273898
 -0.000298936
 -0.000323999
 -0.000348652
 -0.000372337
 -0.000394343
 -0.000413762
 -0.000429427
 -0.000439905
 -0.000443688
 0
 2.87602e-07
 3.07334e-07
 -1.83411e-07
 -1.4059e-06
 -3.55508e-06
 -6.79695e-06
 -1.12674e-05
 -1.70716e-05
 -2.42853e-05
 -3.29569e-05
 -4.31114e-05
 -5.47543e-05
 -6.78763e-05
 -8.24569e-05
 -9.84675e-05
 -0.000115873
 -0.000134629
 -0.000154684
 -0.000175967
 -0.000198389
 -0.000221828
 -0.000246127
 -0.00027108
 -0.000296423
 -0.000321819
 -0.000346843
 -0.000370949
 -0.00039344
 -0.000413411
 -0.000429666
 -0.000440656
 -0.000444663
 0
 -3.73193e-07
 -9.83977e-07
 -2.0658e-06
 -3.83088e-06
 -6.46704e-06
 -1.01354e-05
 -1.49685e-05
 -2.10701e-05
 -2.85164e-05
 -3.73579e-05
 -4.76232e-05
 -5.93223e-05
 -7.24508e-05
 -8.69933e-05
 -0.000102926
 -0.000120217
 -0.000138827
 -0.000158703
 -0.000179779
 -0.000201964
 -0.000225139
 -0.000249147
 -0.000273784
 -0.000298789
 -0.00032383
 -0.000348487
 -0.000372224
 -0.000394354
 -0.000413987
 -0.000429953
 -0.000440736
 -0.000444665
 0
 2.87639e-07
 3.07367e-07
 -1.83457e-07
 -1.40613e-06
 -3.55564e-06
 -6.79798e-06
 -1.12691e-05
 -1.70741e-05
 -2.42887e-05
 -3.29614e-05
 -4.3117e-05
 -5.47612e-05
 -6.78842e-05
 -8.24656e-05
 -9.84765e-05
 -0.000115881
 -0.000134635
 -0.000154685
 -0.000175959
 -0.000198368
 -0.000221788
 -0.000246061
 -0.000270983
 -0.000296294
 -0.000321667
 -0.000346693
 -0.00037085
 -0.000393465
 -0.000413664
 -0.000430258
 -0.000441618
 -0.00044581
 0
 -3.73259e-07
 -9.84143e-07
 -2.06614e-06
 -3.83148e-06
 -6.46803e-06
 -1.01369e-05
 -1.49707e-05
 -2.10731e-05
 -2.85204e-05
 -3.73629e-05
 -4.76293e-05
 -5.93295e-05
 -7.2459e-05
 -8.70022e-05
 -0.000102935
 -0.000120225
 -0.000138832
 -0.000158703
 -0.000179769
 -0.00020194
 -0.000225095
 -0.000249077
 -0.000273683
 -0.000298657
 -0.000323677
 -0.000348339
 -0.000372129
 -0.000394387
 -0.00041425
 -0.000430554
 -0.000441702
 -0.000445812
 0
 2.8767e-07
 3.07397e-07
 -1.83492e-07
 -1.40632e-06
 -3.5561e-06
 -6.79883e-06
 -1.12704e-05
 -1.70761e-05
 -2.42915e-05
 -3.29651e-05
 -4.31217e-05
 -5.47668e-05
 -6.78908e-05
 -8.2473e-05
 -9.84842e-05
 -0.000115888
 -0.000134641
 -0.000154686
 -0.000175954
 -0.000198351
 -0.000221754
 -0.000246005
 -0.0002709
 -0.000296184
 -0.000321538
 -0.000346567
 -0.000370774
 -0.000393516
 -0.000413952
 -0.000430918
 -0.000442716
 -0.000447144
 0
 -3.73312e-07
 -9.84279e-07
 -2.06641e-06
 -3.83197e-06
 -6.46884e-06
 -1.01382e-05
 -1.49725e-05
 -2.10756e-05
 -2.85236e-05
 -3.73671e-05
 -4.76344e-05
 -5.93355e-05
 -7.24659e-05
 -8.70097e-05
 -0.000102943
 -0.000120232
 -0.000138837
 -0.000158703
 -0.000179762
 -0.000201921
 -0.000225059
 -0.000249018
 -0.000273597
 -0.000298545
 -0.000323547
 -0.000348214
 -0.000372058
 -0.000394446
 -0.000414548
 -0.000431223
 -0.000442805
 -0.000447148
 0
 2.87696e-07
 3.07421e-07
 -1.83518e-07
 -1.40647e-06
 -3.55645e-06
 -6.79949e-06
 -1.12715e-05
 -1.70777e-05
 -2.42937e-05
 -3.29679e-05
 -4.31253e-05
 -5.47712e-05
 -6.7896e-05
 -8.24788e-05
 -9.84903e-05
 -0.000115894
 -0.000134645
 -0.000154688
 -0.00017595
 -0.000198338
 -0.000221729
 -0.000245962
 -0.000270835
 -0.000296096
 -0.000321434
 -0.000346467
 -0.000370723
 -0.000393589
 -0.000414256
 -0.00043161
 -0.000443917
 -0.000448652
 0
 -3.73354e-07
 -9.84384e-07
 -2.06662e-06
 -3.83235e-06
 -6.46947e-06
 -1.01391e-05
 -1.49739e-05
 -2.10775e-05
 -2.85261e-05
 -3.73702e-05
 -4.76383e-05
 -5.93402e-05
 -7.24713e-05
 -8.70157e-05
 -0.000102949
 -0.000120238
 -0.000138841
 -0.000158704
 -0.000179757
 -0.000201907
 -0.000225031
 -0.000248972
 -0.000273529
 -0.000298455
 -0.000323442
 -0.000348116
 -0.000372012
 -0.000394525
 -0.000414863
 -0.000431927
 -0.000444013
 -0.000448657
 0
 2.87714e-07
 3.07439e-07
 -1.83536e-07
 -1.40657e-06
 -3.5567e-06
 -6.79995e-06
 -1.12723e-05
 -1.70788e-05
 -2.42952e-05
 -3.29699e-05
 -4.31278e-05
 -5.47743e-05
 -6.78997e-05
 -8.2483e-05
 -9.84948e-05
 -0.000115898
 -0.000134649
 -0.000154689
 -0.000175948
 -0.00019833
 -0.00022171
 -0.00024593
 -0.000270787
 -0.000296031
 -0.000321359
 -0.000346398
 -0.000370693
 -0.000393667
 -0.000414541
 -0.000432258
 -0.000445125
 -0.000450253
 0
 -3.73383e-07
 -9.84459e-07
 -2.06678e-06
 -3.83263e-06
 -6.46992e-06
 -1.01398e-05
 -1.49749e-05
 -2.10789e-05
 -2.85279e-05
 -3.73725e-05
 -4.76411e-05
 -5.93436e-05
 -7.24752e-05
 -8.702e-05
 -0.000102953
 -0.000120242
 -0.000138844
 -0.000158705
 -0.000179754
 -0.000201897
 -0.000225011
 -0.000248939
 -0.00027348
 -0.000298389
 -0.000323366
 -0.000348048
 -0.000371985
 -0.00039461
 -0.000415157
 -0.000432586
 -0.000445229
 -0.000450262
 0
 2.87725e-07
 3.0745e-07
 -1.83547e-07
 -1.40664e-06
 -3.55685e-06
 -6.80023e-06
 -1.12727e-05
 -1.70795e-05
 -2.42961e-05
 -3.29711e-05
 -4.31294e-05
 -5.47762e-05
 -6.79019e-05
 -8.24855e-05
 -9.84975e-05
 -0.000115901
 -0.000134651
 -0.000154691
 -0.000175947
 -0.000198325
 -0.000221699
 -0.000245911
 -0.000270758
 -0.000295992
 -0.000321313
 -0.000346357
 -0.000370679
 -0.000393726
 -0.000414754
 -0.00043274
 -0.000446117
 -0.000451747
 0
 -3.73401e-07
 -9.84504e-07
 -2.06687e-06
 -3.83279e-06
 -6.47019e-06
 -1.01402e-05
 -1.49755e-05
 -2.10797e-05
 -2.85289e-05
 -3.73738e-05
 -4.76428e-05
 -5.93456e-05
 -7.24775e-05
 -8.70226e-05
 -0.000102956
 -0.000120245
 -0.000138846
 -0.000158706
 -0.000179753
 -0.000201891
 -0.000225
 -0.000248918
 -0.000273449
 -0.000298349
 -0.00032332
 -0.000348008
 -0.000371975
 -0.000394675
 -0.000415377
 -0.000433075
 -0.000446229
 -0.000451756
 0
 2.87729e-07
 3.07453e-07
 -1.83551e-07
 -1.40666e-06
 -3.5569e-06
 -6.80033e-06
 -1.12729e-05
 -1.70797e-05
 -2.42964e-05
 -3.29716e-05
 -4.31299e-05
 -5.47768e-05
 -6.79027e-05
 -8.24864e-05
 -9.84985e-05
 -0.000115902
 -0.000134652
 -0.000154691
 -0.000175946
 -0.000198323
 -0.000221696
 -0.000245905
 -0.000270748
 -0.000295979
 -0.000321298
 -0.000346343
 -0.000370676
 -0.000393748
 -0.000414835
 -0.000432923
 -0.000446528
 -0.000452646
 0
 -3.73407e-07
 -9.84519e-07
 -2.0669e-06
 -3.83285e-06
 -6.47028e-06
 -1.01404e-05
 -1.49756e-05
 -2.10799e-05
 -2.85293e-05
 -3.73743e-05
 -4.76433e-05
 -5.93462e-05
 -7.24783e-05
 -8.70235e-05
 -0.000102957
 -0.000120246
 -0.000138847
 -0.000158706
 -0.000179752
 -0.00020189
 -0.000224996
 -0.000248912
 -0.000273439
 -0.000298335
 -0.000323305
 -0.000347994
 -0.000371972
 -0.000394699
 -0.000415459
 -0.000433263
 -0.000446643
 -0.000452601
 </DataArray> 
</PointData> 
<Points> 
<DataArray type="Float32" NumberOfComponents="3"> 
300 0 0
299.71 18.3697 0
298.835 36.2309 0
297.372 53.5246 0
295.324 70.2322 0
292.689 86.3538 0
289.468 101.889 0
285.66 116.839 0
281.266 131.202 0
276.285 144.979 0