<?xml version="1.0"?> 
<VTKFile type="StructuredGrid" version="0.1" byte_order="BigEndian" >
  <StructuredGrid  WholeExtent="0 19 0 5 0 3">
  <Piece Extent="0 19 0 5 0 3">
    <PointData Vectors="Disp"  >
      <DataArray type="Float32" Name="Stress" NumberOfComponents="6" format="ascii">
-15834.732623   -6786.313981   -6786.313981   -4906.020111   0.000000   -2132.390327   
-11010.215536   -204.425355   176.420895   -495.250937   473.549461   1091.259279   
-11185.292396   -686.244917   -734.957351   -594.946605   394.638040   237.139539   
-10862.658241   -520.320341   -566.080774   -172.880879   448.659240   88.592931   
-10221.178724   -466.904369   -577.439865   -20.423434   393.669459   -119.658266   
-9653.830570   -433.703738   -531.606501   88.892185   374.664496   -187.976203   
-9009.140560   -392.142105   -498.415606   175.203865   344.109810   -266.285033   
-8366.906504   -359.978467   -461.524856   231.467386   317.965504   -310.029520   
-7710.224873   -327.085489   -425.473936   273.759389   291.390919   -344.805357   
-7049.783316   -296.386171   -388.814852   302.495613   265.390843   -367.825459   
-6385.197285   -266.270707   -352.141656   322.488251   239.594937   -383.861376   
-5718.624181   -236.844829   -315.236958   335.444899   214.014450   -394.431401   
-5050.283260   -207.863451   -278.588944   343.198769   188.389634   -400.204370   
-4381.590311   -178.547292   -240.917791   345.642760   163.268367   -403.334328   
-3714.894859   -151.728930   -206.450794   347.034910   136.782269   -400.701805   
-3038.261901   -115.061559   -160.758682   334.380997   113.931810   -401.307061   
-2416.665345   -109.910880   -151.716197   344.832286   81.510037   -374.678046   
-1624.695157   -6.417211   -38.617279   276.404222   71.681319   -419.437563   
-1497.321258   -209.301833   -290.867681   362.226758   26.011847   -56.088844   
-306.806404   64.151460   672.773175   319.783779   301.924054   -643.216621   
-14270.497033   -6115.927300   -6115.927300   -1199.358809   0.000000   -4547.918805   
-12702.514456   -2575.761294   -601.011576   -1769.425545   256.152316   -74.320853   
-11607.260052   -1413.304330   -650.540109   -918.374347   287.182763   -152.641234   
-11256.723986   -1119.476801   -632.162664   -535.718243   275.919084   -201.587778   
-10357.144984   -728.492288   -534.584552   -230.281739   260.955606   -163.570051   
-9718.622024   -542.905904   -495.197764   -24.171603   230.274993   -148.982976   
-9015.251881   -388.222120   -445.097042   124.355496   209.458064   -140.047225   
-8342.064605   -283.462543   -404.777169   232.064844   187.808180   -132.079399   
-7666.734825   -206.234112   -366.591459   308.432959   169.527567   -127.930027   
-6995.219777   -149.282825   -330.588877   362.364351   152.149956   -124.414998   
-6325.331812   -106.413197   -296.123786   399.260179   135.863392   -122.197199   
-5656.731556   -72.951353   -262.606107   423.434423   120.130977   -120.761822   
-4988.535397   -45.228590   -229.703108   437.437085   104.789946   -119.774724   
-4321.871325   -21.187232   -197.235580   443.406055   89.488416   -119.608366   
-3652.691900   3.685415   -164.655732   441.196599   74.339352   -119.498525   
-2985.364801   29.249468   -130.322626   433.533956   58.381489   -121.566868   
-2324.289083   56.364845   -105.902353   418.294964   42.630477   -117.256770   
-1597.474595   121.169499   -40.156310   390.636437   29.494195   -143.786284   
-1256.525846   -12.158587   -194.711797   403.040159   5.903764   58.187215   
-201.575881   290.503381   393.090837   202.012792   99.244045   -248.378172   
-15522.501953   -6652.500837   -6652.500837   -429.096026   0.000000   -4890.947791   
-12181.151016   -2769.864869   -268.683643   -191.028811   -6.148726   -38.538360   
-11744.466308   -2404.454662   -793.019274   -395.577726   -44.679524   -210.712821   
-11389.947942   -1879.710155   -710.316733   -168.642396   -36.255588   -232.737935   
-10487.997591   -1377.633051   -636.409292   -115.042028   -45.908288   -205.376783   
-9839.211933   -1061.012229   -586.821836   -40.088716   -44.609268   -173.444006   
-9116.683332   -806.243472   -530.382133   4.968704   -48.050311   -158.636442   
-8433.195760   -625.726883   -483.541260   39.591475   -47.381413   -143.596761   
-7747.489364   -487.857566   -438.537051   64.493366   -46.476717   -135.209988   
-7067.436326   -382.992697   -396.034504   81.887112   -44.202357   -128.538011   
-6389.430168   -300.396667   -355.088479   93.960637   -41.389084   -124.211764   
-5713.178775   -232.947421   -315.166943   101.754195   -38.075289   -121.398834   
-5037.632363   -174.936152   -275.993276   106.436959   -34.536720   -119.602129   
-4363.202227   -121.889143   -236.933570   108.042175   -30.781928   -119.249978   
-3687.512282   -69.996366   -198.797502   108.114672   -27.229413   -119.045872   
-3008.192403   -12.865901   -156.460993   104.531512   -23.588445   -122.873730   
-2340.851147   41.060403   -128.981126   102.487596   -20.211621   -117.637708   
-1585.464220   151.339741   -51.494858   92.244560   -19.059333   -151.167093   
-1196.602751   113.636684   -179.731230   76.177533   -15.930373   50.954480   
-161.050247   573.425484   406.164502   -29.635074   -54.158751   -266.460223   
-15522.501953   -6652.500837   -6652.500837   429.096026   0.000000   -4890.947791   
-12181.151016   -2769.864869   -268.683643   191.028811   6.148726   -38.538360   
-11744.466308   -2404.454662   -793.019274   395.577726   44.679524   -210.712821   
-11389.947942   -1879.710155   -710.316733   168.642396   36.255588   -232.737935   
-10487.997591   -1377.633051   -636.409292   115.042028   45.908288   -205.376783   
-9839.211933   -1061.012229   -586.821836   40.088716   44.609268   -173.444006   
-9116.683332   -806.243472   -530.382133   -4.968704   48.050311   -158.636442   
-8433.195760   -625.726883   -483.541260   -39.591475   47.381413   -143.596761   
-7747.489364   -487.857566   -438.537051   -64.493366   46.476717   -135.209988   
-7067.436326   -382.992697   -396.034504   -81.887112   44.202357   -128.538011   
-6389.430168   -300.396667   -355.088479   -93.960637   41.389084   -124.211764   
-5713.178775   -232.947421   -315.166943   -101.754195   38.075289   -121.398834   
-5037.632363   -174.936152   -275.993276   -106.436959   34.536720   -119.602129   
-4363.202227   -121.889143   -236.933570   -108.042175   30.781928   -119.249978   
-3687.512282   -69.996366   -198.797502   -108.114672   27.229413   -119.045872   
-3008.192403   -12.865901   -156.460993   -104.531512   23.588445   -122.873730   
-2340.851147   41.060403   -128.981126   -102.487596   20.211621   -117.637708   
-1585.464220   151.339741   -51.494858   -92.244560   19.059333   -151.167093   
-1196.602751   113.636684   -179.731230   -76.177533   15.930373   50.954480   
-161.050247   573.425484   406.164502   29.635074   54.158751   -266.460223   
-14270.497033   -6115.927300   -6115.927300   1199.358809   0.000000   -4547.918805   
-12702.514456   -2575.761294   -601.011576   1769.425545   -256.152316   -74.320853   
-11607.260052   -1413.304330   -650.540109   918.374347   -287.182763   -152.641234   
-11256.723986   -1119.476801   -632.162664   535.718243   -275.919084   -201.587778   
-10357.144984   -728.492288   -534.584552   230.281739   -260.955606   -163.570051   
-9718.622024   -542.905904   -495.197764   24.171603   -230.274993   -148.982976   
-9015.251881   -388.222120   -445.097042   -124.355496   -209.458064   -140.047225   
-8342.064605   -283.462543   -404.777169   -232.064844   -187.808180   -132.079399   
-7666.734825   -206.234112   -366.591459   -308.432959   -169.527567   -127.930027   
-6995.219777   -149.282825   -330.588877   -362.364351   -152.149956   -124.414998   
-6325.331812   -106.413197   -296.123786   -399.260179   -135.863392   -122.197199   
-5656.731556   -72.951353   -262.606107   -423.434423   -120.130977   -120.761822   
-4988.535397   -45.228590   -229.703108   -437.437085   -104.789946   -119.774724   
-4321.871325   -21.187232   -197.235580   -443.406055   -89.488416   -119.608366   
-3652.691900   3.685415   -164.655732   -441.196599   -74.339352   -119.498525   
-2985.364801   29.249468   -130.322626   -433.533956   -58.381489   -121.566868   
-2324.289083   56.364845   -105.902353   -418.294964   -42.630477   -117.256770   
-1597.474595   121.169499   -40.156310   -390.636437   -29.494195   -143.786284   
-1256.525846   -12.158587   -194.711797   -403.040159   -5.903764   58.187215   
-201.575881   290.503381   393.090837   -202.012792   -99.244045   -248.378172   
-11010.215536   -204.425355   176.420895   495.250937   -473.549461   1091.259279   
-11185.292396   -686.244917   -734.957351   594.946605   -394.638040   237.139539   
-10862.658241   -520.320341   -566.080774   172.880879   -448.659240   88.592931   
-10221.178724   -466.904369   -577.439865   20.423434   -393.669459   -119.658266   
-9653.830570   -433.703738   -531.606501   -88.892185   -374.664496   -187.976203   
-9009.140560   -392.142105   -498.415606   -175.203865   -344.109810   -266.285033   
-8366.906504   -359.978467   -461.524856   -231.467386   -317.965504   -310.029520   
-7710.224873   -327.085489   -425.473936   -273.759389   -291.390919   -344.805357   
-7049.783316   -296.386171   -388.814852   -302.495613   -265.390843   -367.825459   
-6385.197285   -266.270707   -352.141656   -322.488251   -239.594937   -383.861376   
-5718.624181   -236.844829   -315.236958   -335.444899   -214.014450   -394.431401   
-5050.283260   -207.863451   -278.588944   -343.198769   -188.389634   -400.204370   
-4381.590311   -178.547292   -240.917791   -345.642760   -163.268367   -403.334328   
-3714.894859   -151.728930   -206.450794   -347.034910   -136.782269   -400.701805   
-3038.261901   -115.061559   -160.758682   -334.380997   -113.931810   -401.307061   
-2416.665345   -109.910880   -151.716197   -344.832286   -81.510037   -374.678046   
-1624.695157   -6.417211   -38.617279   -276.404222   -71.681319   -419.437563   
-1497.321258   -209.301833   -290.867681   -362.226758   -26.011847   -56.088844   
-306.806404   64.151460   672.773175   -319.783779   -301.924054   -643.216621   
-1497.321258   -209.301833   -290.867681   -362.226758   -26.011847   -56.088844   
-3996.524795   -1712.796341   -1712.796341   -1316.094877   0.000000   1394.685237   
-3103.838856   -208.777517   -397.600016   174.024747   865.021140   293.415107   
-2639.947294   -92.045872   -159.933267   -4.689340   739.047281   756.385350   
-2709.133010   -187.533344   -425.557685   1.009022   604.120583   -80.787130   
-2564.975506   -148.896498   -346.148032   15.994736   541.375208   -409.002353   
-2449.595230   -152.575682   -351.210211   12.826783   470.041410   -693.767929   
-2293.426256   -136.585665   -320.983849   19.747633   422.110115   -870.740184   
-2138.672842   -128.218274   -302.142157   21.532250   377.604331   -998.752726   
-1975.248733   -117.141655   -278.397014   23.992650   339.239464   -1087.124405   
-1809.806118   -107.094905   -255.588028   25.456835   303.768433   -1149.065631   
-1641.740713   -96.721793   -231.793798   26.528928   270.548206   -1191.368642   
-1472.377132   -86.559268   -208.132278   27.256810   238.720245   -1219.035745   
-1301.969353   -76.130064   -183.708431   27.578549   207.812061   -1235.144055   
-1131.628221   -66.534393   -160.988777   28.081163   177.106791   -1241.607604   
-959.288378   -54.321946   -132.944856   27.172417   146.840854   -1238.471624   
-796.320871   -49.390674   -118.257950   29.239152   115.052105   -1223.909902   
-608.398936   -26.240937   -74.901474   23.605302   85.358754   -1202.863535   
-506.360354   -49.666043   -98.821307   30.731397   54.622925   -1145.331007   
-182.119111   -31.029629   -160.786029   27.997807   20.844873   -1243.373420   
301.181260   299.578358   968.268326   6.399119   -13.522910   -1046.464708   
-2597.272502   -1113.116787   -1113.116787   -298.211336   0.000000   -956.516466   
-4225.190902   -1283.953557   -1093.567459   -369.368613   597.568321   -2034.113882   
-2960.200850   -383.022010   -141.588265   -139.013762   603.615428   -776.830645   
-2922.641471   -439.387346   -459.003125   -87.783911   538.595799   -774.634908   
-2712.913836   -322.739451   -345.118630   -26.944503   433.822599   -689.855233   
-2528.369363   -269.444473   -332.139778   7.262685   354.554761   -649.742373   
-2351.590342   -223.722821   -299.826035   31.994940   286.640230   -626.479924   
-2172.863472   -187.536679   -273.271148   50.195990   236.624802   -608.604017   
-1996.843107   -159.278234   -248.731667   62.850009   196.869634   -596.753867   
-1821.513776   -135.691772   -224.920575   71.972039   165.263701   -588.386007   
-1646.758116   -115.661515   -201.987551   78.186345   138.888857   -582.673878   
-1472.446696   -97.944044   -179.551284   82.264505   116.039208   -578.939954   
-1298.449748   -81.717077   -157.323410   84.707080   95.281355   -576.708006   
-1124.375833   -66.271769   -135.799024   85.633999   75.503778   -575.970669   
-950.314991   -50.418039   -111.942956   85.704356   55.400504   -575.998059   
-778.553552   -36.587988   -94.917023   84.146348   34.197669   -577.378829   
-595.594453   -13.283712   -60.275996   82.138235   11.144036   -582.121393   
-461.401873   -19.102928   -78.096077   77.834477   -11.960730   -576.170031   
-171.669255   26.989462   -102.075496   60.944480   -16.033319   -682.073546   
206.762289   354.377435   628.904765   1.627871   48.116874   -509.868841   
-2775.654780   -1189.566334   -1189.566334   -127.494414   0.000000   -1104.911234   
-4099.633930   -1270.931443   -1052.124768   -33.685740   41.146413   -2318.621891   
-2996.284325   -571.687126   -141.427898   -97.180425   53.382309   -1040.384907   
-2959.399601   -561.904857   -483.145589   -29.959839   63.254302   -1018.779826   
-2737.728397   -409.352799   -362.634719   -19.195387   50.431054   -846.917996   
-2550.644174   -327.613475   -353.253929   -2.987665   28.153514   -743.022689   
-2364.752931   -259.540662   -317.014251   5.964015   12.769865   -665.825554   
-2182.773415   -209.825896   -289.827372   12.243323   0.088364   -610.297883   
-2003.404057   -171.144615   -263.382036   17.038878   -7.602570   -571.582608   
-1826.022453   -140.674070   -238.235090   20.232857   -12.670422   -544.509658   
-1649.688940   -115.718604   -213.846249   22.512418   -15.566361   -526.037326   
-1474.202290   -94.596755   -190.089402   23.993885   -17.144362   -513.975563   
-1299.183101   -75.767159   -166.448704   24.835326   -17.877301   -506.927940   
-1124.440920   -58.463483   -143.766564   25.262659   -18.293120   -504.358005   
-948.989356   -40.385901   -118.358255   25.167924   -18.727448   -505.557955   
-776.732233   -24.967421   -100.193935   24.783602   -19.843674   -511.351536   
-590.447624   1.398452   -64.531434   24.507818   -21.922002   -524.291158   
-449.640599   3.794804   -77.263647   21.880210   -24.325941   -536.159884   
-164.624456   55.324329   -98.956127   17.229703   -21.518785   -643.591889   
178.618257   352.030255   564.236773   4.586432   -12.929260   -512.150223   
-2775.654780   -1189.566334   -1189.566334   127.494414   0.000000   -1104.911234   
-4099.633930   -1270.931443   -1052.124768   33.685740   -41.146413   -2318.621891   
-2996.284325   -571.687126   -141.427898   97.180425   -53.382309   -1040.384907   
-2959.399601   -561.904857   -483.145589   29.959839   -63.254302   -1018.779826   
-2737.728397   -409.352799   -362.634719   19.195387   -50.431054   -846.917996   
-2550.644174   -327.613475   -353.253929   2.987665   -28.153514   -743.022689   
-2364.752931   -259.540662   -317.014251   -5.964015   -12.769865   -665.825554   
-2182.773415   -209.825896   -289.827372   -12.243323   -0.088364   -610.297883   
-2003.404057   -171.144615   -263.382036   -17.038878   7.602570   -571.582608   
-1826.022453   -140.674070   -238.235090   -20.232857   12.670422   -544.509658   
-1649.688940   -115.718604   -213.846249   -22.512418   15.566361   -526.037326   
-1474.202290   -94.596755   -190.089402   -23.993885   17.144362   -513.975563   
-1299.183101   -75.767159   -166.448704   -24.835326   17.877301   -506.927940   
-1124.440920   -58.463483   -143.766564   -25.262659   18.293120   -504.358005   
-948.989356   -40.385901   -118.358255   -25.167924   18.727448   -505.557955   
-776.732233   -24.967421   -100.193935   -24.783602   19.843674   -511.351536   
-590.447624   1.398452   -64.531434   -24.507818   21.922002   -524.291158   
-449.640599   3.794804   -77.263647   -21.880210   24.325941   -536.159884   
-164.624456   55.324329   -98.956127   -17.229703   21.518785   -643.591889   
178.618257   352.030255   564.236773   -4.586432   12.929260   -512.150223   
-2597.272502   -1113.116787   -1113.116787   298.211336   0.000000   -956.516466   
-4225.190902   -1283.953557   -1093.567459   369.368613   -597.568321   -2034.113882   
-2960.200850   -383.022010   -141.588265   139.013762   -603.615428   -776.830645   
-2922.641471   -439.387346   -459.003125   87.783911   -538.595799   -774.634908   
-2712.913836   -322.739451   -345.118630   26.944503   -433.822599   -689.855233   
-2528.369363   -269.444473   -332.139778   -7.262685   -354.554761   -649.742373   
-2351.590342   -223.722821   -299.826035   -31.994940   -286.640230   -626.479924   
-2172.863472   -187.536679   -273.271148   -50.195990   -236.624802   -608.604017   
-1996.843107   -159.278234   -248.731667   -62.850009   -196.869634   -596.753867   
-1821.513776   -135.691772   -224.920575   -71.972039   -165.263701   -588.386007   
-1646.758116   -115.661515   -201.987551   -78.186345   -138.888857   -582.673878   
-1472.446696   -97.944044   -179.551284   -82.264505   -116.039208   -578.939954   
-1298.449748   -81.717077   -157.323410   -84.707080   -95.281355   -576.708006   
-1124.375833   -66.271769   -135.799024   -85.633999   -75.503778   -575.970669   
-950.314991   -50.418039   -111.942956   -85.704356   -55.400504   -575.998059   
-778.553552   -36.587988   -94.917023   -84.146348   -34.197669   -577.378829   
-595.594453   -13.283712   -60.275996   -82.138235   -11.144036   -582.121393   
-461.401873   -19.102928   -78.096077   -77.834477   11.960730   -576.170031   
-171.669255   26.989462   -102.075496   -60.944480   16.033319   -682.073546   
206.762289   354.377435   628.904765   -1.627871   -48.116874   -509.868841   
-3103.838856   -208.777517   -397.600016   -174.024747   -865.021140   293.415107   
-2639.947294   -92.045872   -159.933267   4.689340   -739.047281   756.385350   
-2709.133010   -187.533344   -425.557685   -1.009022   -604.120583   -80.787130   
-2564.975506   -148.896498   -346.148032   -15.994736   -541.375208   -409.002353   
-2449.595230   -152.575682   -351.210211   -12.826783   -470.041410   -693.767929   
-2293.426256   -136.585665   -320.983849   -19.747633   -422.110115   -870.740184   
-2138.672842   -128.218274   -302.142157   -21.532250   -377.604331   -998.752726   
-1975.248733   -117.141655   -278.397014   -23.992650   -339.239464   -1087.124405   
-1809.806118   -107.094905   -255.588028   -25.456835   -303.768433   -1149.065631   
-1641.740713   -96.721793   -231.793798   -26.528928   -270.548206   -1191.368642   
-1472.377132   -86.559268   -208.132278   -27.256810   -238.720245   -1219.035745   
-1301.969353   -76.130064   -183.708431   -27.578549   -207.812061   -1235.144055   
-1131.628221   -66.534393   -160.988777   -28.081163   -177.106791   -1241.607604   
-959.288378   -54.321946   -132.944856   -27.172417   -146.840854   -1238.471624   
-796.320871   -49.390674   -118.257950   -29.239152   -115.052105   -1223.909902   
-608.398936   -26.240937   -74.901474   -23.605302   -85.358754   -1202.863535   
-506.360354   -49.666043   -98.821307   -30.731397   -54.622925   -1145.331007   
-182.119111   -31.029629   -160.786029   -27.997807   -20.844873   -1243.373420   
301.181260   299.578358   968.268326   -6.399119   13.522910   -1046.464708   
-182.119111   -31.029629   -160.786029   -27.997807   -20.844873   -1243.373420   
3996.524795   1712.796341   1712.796341   1316.094877   0.000000   1394.685237   
3103.838856   208.777517   397.600016   -174.024747   865.021140   293.415107   
2639.947294   92.045872   159.933267   4.689340   739.047281   756.385350   
2709.133010   187.533344   425.557685   -1.009022   604.120583   -80.787130   
2564.975506   148.896498   346.148032   -15.994736   541.375208   -409.002353   
2449.595230   152.575682   351.210211   -12.826783   470.041410   -693.767929   
2293.426256   136.585665   320.983849   -19.747633   422.110115   -870.740184   
2138.672842   128.218274   302.142157   -21.532250   377.604331   -998.752726   
1975.248733   117.141655   278.397014   -23.992650   339.239464   -1087.124405   
1809.806118   107.094905   255.588028   -25.456835   303.768433   -1149.065631   
1641.740713   96.721793   231.793798   -26.528928   270.548206   -1191.368642   
1472.377132   86.559268   208.132278   -27.256810   238.720245   -1219.035745   
1301.969353   76.130064   183.708431   -27.578549   207.812061   -1235.144055   
1131.628221   66.534393   160.988777   -28.081163   177.106791   -1241.607604   
959.288378   54.321946   132.944856   -27.172417   146.840854   -1238.471624   
796.320871   49.390674   118.257950   -29.239152   115.052105   -1223.909902   
608.398936   26.240937   74.901474   -23.605302   85.358754   -1202.863535   
506.360354   49.666043   98.821307   -30.731397   54.622925   -1145.331007   
182.119111   31.029629   160.786029   -27.997807   20.844873   -1243.373420   
-301.181260   -299.578358   -968.268326   -6.399119   -13.522910   -1046.464708   
2597.272502   1113.116787   1113.116787   298.211336   0.000000   -956.516466   
4225.190902   1283.953557   1093.567459   369.368613   597.568321   -2034.113882   
2960.200850   383.022010   141.588265   139.013762   603.615428   -776.830645   
2922.641471   439.387346   459.003125   87.783911   538.595799   -774.634908   
2712.913836   322.739451   345.118630   26.944503   433.822599   -689.855233   
2528.369363   269.444473   332.139778   -7.262685   354.554761   -649.742373   
2351.590342   223.722821   299.826035   -31.994940   286.640230   -626.479924   
2172.863472   187.536679   273.271148   -50.195990   236.624802   -608.604017   
1996.843107   159.278234   248.731667   -62.850009   196.869634   -596.753867   
1821.513776   135.691772   224.920575   -71.972039   165.263701   -588.386007   
1646.758116   115.661515   201.987551   -78.186345   138.888857   -582.673878   
1472.446696   97.944044   179.551284   -82.264505   116.039208   -578.939954   
1298.449748   81.717077   157.323410   -84.707080   95.281355   -576.708006   
1124.375833   66.271769   135.799024   -85.633999   75.503778   -575.970669   
950.314991   50.418039   111.942956   -85.704356   55.400504   -575.998059   
778.553552   36.587988   94.917023   -84.146348   34.197669   -577.378829   
595.594453   13.283712   60.275996   -82.138235   11.144036   -582.121393   
461.401873   19.102928   78.096077   -77.834477   -11.960730   -576.170031   
171.669255   -26.989462   102.075496   -60.944480   -16.033319   -682.073546   
-206.762289   -354.377435   -628.904765   -1.627871   48.116874   -509.868841   
2775.654780   1189.566334   1189.566334   127.494414   0.000000   -1104.911234   
4099.633930   1270.931443   1052.124768   33.685740   41.146413   -2318.621891   
2996.284325   571.687126   141.427898   97.180425   53.382309   -1040.384907   
2959.399601   561.904857   483.145589   29.959839   63.254302   -1018.779826   
2737.728397   409.352799   362.634719   19.195387   50.431054   -846.917996   
2550.644174   327.613475   353.253929   2.987665   28.153514   -743.022689   
2364.752931   259.540662   317.014251   -5.964015   12.769865   -665.825554   
2182.773415   209.825896   289.827372   -12.243323   0.088364   -610.297883   
2003.404057   171.144615   263.382036   -17.038878   -7.602570   -571.582608   
1826.022453   140.674070   238.235090   -20.232857   -12.670422   -544.509658   
1649.688940   115.718604   213.846249   -22.512418   -15.566361   -526.037326   
1474.202290   94.596755   190.089402   -23.993885   -17.144362   -513.975563   
1299.183101   75.767159   166.448704   -24.835326   -17.877301   -506.927940   
1124.440920   58.463483   143.766564   -25.262659   -18.293120   -504.358005   
948.989356   40.385901   118.358255   -25.167924   -18.727448   -505.557955   
776.732233   24.967421   100.193935   -24.783602   -19.843674   -511.351536   
590.447624   -1.398452   64.531434   -24.507818   -21.922002   -524.291158   
449.640599   -3.794804   77.263647   -21.880210   -24.325941   -536.159884   
164.624456   -55.324329   98.956127   -17.229703   -21.518785   -643.591889   
-178.618257   -352.030255   -564.236773   -4.586432   -12.929260   -512.150223   
2775.654780   1189.566334   1189.566334   -127.494414   0.000000   -1104.911234   
4099.633930   1270.931443   1052.124768   -33.685740   -41.146413   -2318.621891   
2996.284325   571.687126   141.427898   -97.180425   -53.382309   -1040.384907   
2959.399601   561.904857   483.145589   -29.959839   -63.254302   -1018.779826   
2737.728397   409.352799   362.634719   -19.195387   -50.431054   -846.917996   
2550.644174   327.613475   353.253929   -2.987665   -28.153514   -743.022689   
2364.752931   259.540662   317.014251   5.964015   -12.769865   -665.825554   
2182.773415   209.825896   289.827372   12.243323   -0.088364   -610.297883   
2003.404057   171.144615   263.382036   17.038878   7.602570   -571.582608   
1826.022453   140.674070   238.235090   20.232857   12.670422   -544.509658   
1649.688940   115.718604   213.846249   22.512418   15.566361   -526.037326   
1474.202290   94.596755   190.089402   23.993885   17.144362   -513.975563   
1299.183101   75.767159   166.448704   24.835326   17.877301   -506.927940   
1124.440920   58.463483   143.766564   25.262659   18.293120   -504.358005   
948.989356   40.385901   118.358255   25.167924   18.727448   -505.557955   
776.732233   24.967421   100.193935   24.783602   19.843674   -511.351536   
590.447624   -1.398452   64.531434   24.507818   21.922002   -524.291158   
449.640599   -3.794804   77.263647   21.880210   24.325941   -536.159884   
164.624456   -55.324329   98.956127   17.229703   21.518785   -643.591889   
-178.618257   -352.030255   -564.236773   4.586432   12.929260   -512.150223   
2597.272502   1113.116787   1113.116787   -298.211336   0.000000   -956.516466   
4225.190902   1283.953557   1093.567459   -369.368613   -597.568321   -2034.113882   
2960.200850   383.022010   141.588265   -139.013762   -603.615428   -776.830645   
2922.641471   439.387346   459.003125   -87.783911   -538.595799   -774.634908   
2712.913836   322.739451   345.118630   -26.944503   -433.822599   -689.855233   
2528.369363   269.444473   332.139778   7.262685   -354.554761   -649.742373   
2351.590342   223.722821   299.826035   31.994940   -286.640230   -626.479924   
2172.863472   187.536679   273.271148   50.195990   -236.624802   -608.604017   
1996.843107   159.278234   248.731667   62.850009   -196.869634   -596.753867   
1821.513776   135.691772   224.920575   71.972039   -165.263701   -588.386007   
1646.758116   115.661515   201.987551   78.186345   -138.888857   -582.673878   
1472.446696   97.944044   179.551284   82.264505   -116.039208   -578.939954   
1298.449748   81.717077   157.323410   84.707080   -95.281355   -576.708006   
1124.375833   66.271769   135.799024   85.633999   -75.503778   -575.970669   
950.314991   50.418039   111.942956   85.704356   -55.400504   -575.998059   
778.553552   36.587988   94.917023   84.146348   -34.197669   -577.378829   
595.594453   13.283712   60.275996   82.138235   -11.144036   -582.121393   
461.401873   19.102928   78.096077   77.834477   11.960730   -576.170031   
171.669255   -26.989462   102.075496   60.944480   16.033319   -682.073546   
-206.762289   -354.377435   -628.904765   1.627871   -48.116874   -509.868841   
3103.838856   208.777517   397.600016   174.024747   -865.021140   293.415107   
2639.947294   92.045872   159.933267   -4.689340   -739.047281   756.385350   
2709.133010   187.533344   425.557685   1.009022   -604.120583   -80.787130   
2564.975506   148.896498   346.148032   15.994736   -541.375208   -409.002353   
2449.595230   152.575682   351.210211   12.826783   -470.041410   -693.767929   
2293.426256   136.585665   320.983849   19.747633   -422.110115   -870.740184   
2138.672842   128.218274   302.142157   21.532250   -377.604331   -998.752726   
1975.248733   117.141655   278.397014   23.992650   -339.239464   -1087.124405   
1809.806118   107.094905   255.588028   25.456835   -303.768433   -1149.065631   
1641.740713   96.721793   231.793798   26.528928   -270.548206   -1191.368642   
1472.377132   86.559268   208.132278   27.256810   -238.720245   -1219.035745   
1301.969353   76.130064   183.708431   27.578549   -207.812061   -1235.144055   
1131.628221   66.534393   160.988777   28.081163   -177.106791   -1241.607604   
959.288378   54.321946   132.944856   27.172417   -146.840854   -1238.471624   
796.320871   49.390674   118.257950   29.239152   -115.052105   -1223.909902   
608.398936   26.240937   74.901474   23.605302   -85.358754   -1202.863535   
506.360354   49.666043   98.821307   30.731397   -54.622925   -1145.331007   
182.119111   31.029629   160.786029   27.997807   -20.844873   -1243.373420   
-301.181260   -299.578358   -968.268326   6.399119   13.522910   -1046.464708   
182.119111   31.029629   160.786029   27.997807   -20.844873   -1243.373420   
15834.732623   6786.313981   6786.313981   4906.020111   0.000000   -2132.390327   