<VTKFile type="UnstructuredGrid"  version="0.1"   > 
<UnstructuredGrid> 
<Piece  NumberOfPoints="  81" NumberOfCells=" 64"> 
<Points> 
<DataArray  type="Float64"  NumberOfComponents="3"  format="ascii" > 
-0.707107 0.707107 0.0 
-0.823969 0.566635 0.0 
-0.917742 0.397177 0.0 
-0.978781 0.204909 0.0 
-1.000000 0.000000 0.0 
-0.978781 -0.204909 0.0 
-0.917742 -0.397177 0.0 
-0.823969 -0.566635 0.0 
-0.707107 -0.707107 0.0 
-1.041379 1.041379 0.0 
-1.247322 0.821323 0.0 
-1.407930 0.568495 0.0 
-1.510331 0.290925 0.0 
-1.545543 -0.000000 0.0 
-1.510331 -0.290925 0.0 
-1.407930 -0.568495 0.0 
-1.247322 -0.821323 0.0 
-1.041379 -1.041379 0.0 
-1.397748 1.397748 0.0 
-1.657588 1.087504 0.0 
-1.855411 0.744895 0.0 
-1.979402 0.378682 0.0 
-2.021661 0.000000 0.0 
-1.979402 -0.378682 0.0 
-1.855411 -0.744895 0.0 
-1.657588 -1.087504 0.0 
-1.397748 -1.397748 0.0 
-1.776214 1.776214 0.0 
-2.057821 1.366357 0.0 
-2.267987 0.927918 0.0 
-2.397897 0.469218 0.0 
-2.441857 0.000000 0.0 
-2.397897 -0.469218 0.0 
-2.267987 -0.927918 0.0 
-2.057821 -1.366357 0.0 
-1.776214 -1.776214 0.0 
-2.176777 2.176777 0.0 
-2.450800 1.659158 0.0 
-2.652058 1.119118 0.0 
-2.775101 0.563537 0.0 
-2.816505 0.000000 0.0 
-2.775101 -0.563537 0.0 
-2.652058 -1.119118 0.0 
-2.450800 -1.659158 0.0 
-2.176777 -2.176777 0.0 
-2.599437 2.599437 0.0 
-2.839105 1.967303 0.0 
-3.012982 1.320108 0.0 
-3.118404 0.662653 0.0 
-3.153729 -0.000000 0.0 
-3.118404 -0.662653 0.0 
-3.012982 -1.320108 0.0 
-2.839105 -1.967303 0.0 
-2.599437 -2.599437 0.0 
-3.044194 3.044194 0.0 
-3.225176 2.292325 0.0 
-3.355342 1.532618 0.0 
-3.433802 0.767636 0.0 
-3.460016 -0.000000 0.0 
-3.433802 -0.767636 0.0 
-3.355342 -1.532618 0.0 
-3.225176 -2.292325 0.0 
-3.044194 -3.044194 0.0 
-3.511049 3.511049 0.0 
-3.611368 2.635925 0.0 
-3.683148 1.758542 0.0 
-3.726266 0.879649 0.0 
-3.740646 -0.000000 0.0 
-3.726266 -0.879649 0.0 
-3.683148 -1.758542 0.0 
-3.611368 -2.635925 0.0 
-3.511049 -3.511049 0.0 
-4.000000 4.000000 0.0 
-4.000000 3.000000 0.0 
-4.000000 2.000000 0.0 
-4.000000 1.000000 0.0 
-4.000000 -0.000000 0.0 
-4.000000 -1.000000 0.0 
-4.000000 -2.000000 0.0 
-4.000000 -3.000000 0.0 
-4.000000 -4.000000 0.0 
</DataArray> 
</Points> 
<Cells> 
<DataArray  type="Int32"  Name="connectivity"  format="ascii"> 
0 1 10 9 
1 2 11 10 
2 3 12 11 
3 4 13 12 
4 5 14 13 
5 6 15 14 
6 7 16 15 
7 8 17 16 
9 10 19 18 
10 11 20 19 
11 12 21 20 
12 13 22 21 
13 14 23 22 
14 15 24 23 
15 16 25 24 
16 17 26 25 
18 19 28 27 
19 20 29 28 
20 21 30 29 
21 22 31 30 
22 23 32 31 
23 24 33 32 
24 25 34 33 
25 26 35 34 
27 28 37 36 
28 29 38 37 
29 30 39 38 
30 31 40 39 
31 32 41 40 
32 33 42 41 
33 34 43 42 
34 35 44 43 
36 37 46 45 
37 38 47 46 
38 39 48 47 
39 40 49 48 
40 41 50 49 
41 42 51 50 
42 43 52 51 
43 44 53 52 
45 46 55 54 
46 47 56 55 
47 48 57 56 
48 49 58 57 
49 50 59 58 
50 51 60 59 
51 52 61 60 
52 53 62 61 
54 55 64 63 
55 56 65 64 
56 57 66 65 
57 58 67 66 
58 59 68 67 
59 60 69 68 
60 61 70 69 
61 62 71 70 
63 64 73 72 
64 65 74 73 
65 66 75 74 
66 67 76 75 
67 68 77 76 
68 69 78 77 
69 70 79 78 
70 71 80 79 
</DataArray> 
<DataArray  type="Int32"  Name="offsets"  format="ascii"> 
4 
8 
12 
16 
20 
24 
28 
32 
36 
40 
44 
48 
52 
56 
60 
64 
68 
72 
76 
80 
84 
88 
92 
96 
100 
104 
108 
112 
116 
120 
124 
128 
132 
136 
140 
144 
148 
152 
156 
160 
164 
168 
172 
176 
180 
184 
188 
192 
196 
200 
204 
208 
212 
216 
220 
224 
228 
232 
236 
240 
244 
248 
252 
256 
</DataArray> 
<DataArray  type="UInt8"  Name="types"  format="ascii"> 
9 
9 
9 
9 
9 
9 
9 
9 
9 
9 
9 
9 
9 
9 
9 
9 
9 
9 
9 
9 
9 
9 
9 
9 
9 
9 
9 
9 
9 
9 
9 
9 
9 
9 
9 
9 
9 
9 
9 
9 
9 
9 
9 
9 
9 
9 
9 
9 
9 
9 
9 
9 
9 
9 
9 
9 
9 
9 
9 
9 
9 
9 
9 
9 
</DataArray> 
</Cells> 
<PointData  Vectors="sigma"> 
<DataArray  type="Float64"  Name="sigma" NumberOfComponents="3" format="ascii"> 
7363.89   3716.89   5156.51   
2228.83   -295.139   2040.86   
-466.367   -5442.4   -76.9773   
-1564.78   -9653.27   -593.93   
-1826.16   -11267.9   -1.60128e-11   
-1564.78   -9653.27   593.93   
-466.367   -5442.4   76.9773   
2228.83   -295.139   -2040.86   
7363.89   3716.89   -5156.51   
13333.9   -2164.26   2310.94   
9679.05   -2638.19   3497.26   
5932.09   -1864.76   3592.88   
3098.76   -681.717   2292.21   
2035.67   -126.211   -1.06752e-12   
3098.76   -681.717   -2292.21   
5932.09   -1864.76   -3592.88   
9679.05   -2638.19   -3497.26   
13333.9   -2164.26   -2310.94   
13185   -1859.14   1112.86   
10708.8   -1631.45   2335.67   
7993.65   -567.783   2469.86   
6018.43   431.877   1520.21   
5320.3   818.953   1.81479e-11   
6018.43   431.877   -1520.21   
7993.65   -567.783   -2469.86   
10708.8   -1631.45   -2335.67   
13185   -1859.14   -1112.86   
12701   -1337.73   427.481   
11069.3   -1104.23   1436.51   
8945.72   -238.909   1754.23   
7196.18   656.561   1169.06   
6526.07   1031.29   -1.06752e-12   
7196.18   656.561   -1169.06   
8945.72   -238.909   -1754.23   
11069.3   -1104.23   -1436.51   
12701   -1337.73   -427.481   
12387.5   -847.958   37.9786   
11205.7   -692.583   801.939   
9509.08   -20.5904   1176.79   
7962.82   766.676   850.716   
7340.04   1116.81   1.49453e-11   
7962.82   766.676   -850.716   
9509.08   -20.5904   -1176.79   
11205.7   -692.583   -801.939   
12387.5   -847.958   -37.9786   
12313   -464.383   -148.53   
11362   -416.944   373.8   
9889.65   83.3825   749.883   
8402.55   805.427   615.855   
7760.94   1160.55   0   
8402.55   805.427   -615.855   
9889.65   83.3825   -749.883   
11362   -416.944   -373.8   
12313   -464.383   148.53   
12517.5   -199.798   -163.547   
11593.1   -245   106.655   
10215.1   113.039   411.894   
8705.35   808.751   408.443   
8011.94   1197.68   6.40513e-12   
8705.35   808.751   -408.443   
10215.1   113.039   -411.894   
11593.1   -245   -106.655   
12517.5   -199.798   163.547   
13040.4   -57.9574   -73.1816   
11948.6   -151.777   -15.4902   
10544.2   71.4644   149.357   
8928.83   772.709   211.823   
8141.6   1231.78   6.40513e-12   
8928.83   772.709   -211.823   
10544.2   71.4644   -149.357   
11948.6   -151.777   15.4902   
13040.4   -57.9574   73.1816   
13801.1   20.3819   6.64417   
12443.2   -96.8946   -12.4152   
10919.1   -32.5537   -33.219   
9119.83   692.511   13.0414   
8202.22   1271.75   -4.27009e-12   
9119.83   692.511   -13.0414   
10919.1   -32.5537   33.219   
12443.2   -96.8946   12.4152   
13801.1   20.3819   -6.64417   
</DataArray> 
<DataArray  type="Float64"  Name="U" NumberOfComponents="3" format="ascii"> 
0.260766835550   -0.198438438291   0.0
0.221776733326   -0.181405662445   0.0
0.190878961025   -0.161800983061   0.0
0.170912309342   -0.140485310638   0.0
0.163999667151   -0.118360202505   0.0
0.170912309342   -0.096235094372   0.0
0.190878961025   -0.074919421949   0.0
0.221776733326   -0.055314742564   0.0
0.260766835550   -0.038281966719   0.0
0.293318835169   -0.171892420268   0.0
0.238562764423   -0.147001286360   0.0
0.193637587635   -0.130309935695   0.0
0.164330828331   -0.121861196798   0.0
0.154176740246   -0.118360202505   0.0
0.164330828331   -0.114859208212   0.0
0.193637587635   -0.106410469314   0.0
0.238562764423   -0.089719118650   0.0
0.293318835169   -0.064827984742   0.0
0.279986192156   -0.172850275328   0.0
0.222825669684   -0.147331450015   0.0
0.176805854083   -0.130880071556   0.0
0.147493751923   -0.122438822610   0.0
0.137507124852   -0.118360202505   0.0
0.147493751923   -0.114281582400   0.0
0.176805854083   -0.105840333454   0.0
0.222825669684   -0.089388954995   0.0
0.279986192156   -0.063870129682   0.0
0.251087321166   -0.179173095822   0.0
0.196493856194   -0.152567603786   0.0
0.152270124890   -0.134290411485   0.0
0.123716621931   -0.123985708210   0.0
0.113895210296   -0.118360202505   0.0
0.123716621931   -0.112734696799   0.0
0.152270124890   -0.102429993525   0.0
0.196493856194   -0.084152801223   0.0
0.251087321166   -0.057547309187   0.0
0.213434883613   -0.187077518085   0.0
0.164406101582   -0.159193267792   0.0
0.124543622110   -0.138630455144   0.0
0.098331002049   -0.125943729562   0.0
0.089192906212   -0.118360202505   0.0
0.098331002049   -0.110776675448   0.0
0.124543622110   -0.098089949866   0.0
0.164406101582   -0.077527137218   0.0
0.213434883613   -0.049642886924   0.0
0.169589475546   -0.195678382224   0.0
0.128520091117   -0.166377809507   0.0
0.095255821657   -0.143208916443   0.0
0.072873786928   -0.127886812355   0.0
0.064911723190   -0.118360202505   0.0
0.072873786928   -0.108833592655   0.0
0.095255821657   -0.093511488567   0.0
0.128520091117   -0.070342595503   0.0
0.169589475546   -0.041042022786   0.0
0.120135234847   -0.205689332514   0.0
0.089290945037   -0.174505699166   0.0
0.064855700927   -0.148241795064   0.0
0.048009650166   -0.129897650335   0.0
0.041854712915   -0.118360202505   0.0
0.048009650166   -0.106822754675   0.0
0.064855700927   -0.088478609946   0.0
0.089290945037   -0.062214705843   0.0
0.120135234847   -0.031031072496   0.0
0.064240662394   -0.218794130705   0.0
0.046600294552   -0.184370251060   0.0
0.033222509233   -0.154095236843   0.0
0.023787335958   -0.132064140644   0.0
0.020217930892   -0.118360202505   0.0
0.023787335958   -0.104656264366   0.0
0.033222509233   -0.082625168167   0.0
0.046600294552   -0.052350153950   0.0
0.064240662394   -0.017926274305   0.0
0.000000000000   -0.236720405010   0.0
0.000000000000   -0.196971394454   0.0
0.000000000000   -0.161280674841   0.0
0.000000000000   -0.134522005148   0.0
0.000000000000   -0.118360202505   0.0
0.000000000000   -0.102198399862   0.0
0.000000000000   -0.075439730169   0.0
0.000000000000   -0.039749010556   0.0
0.000000000000   -0.000000000000   0.0
</DataArray> 
</PointData> 
</Piece> 
</UnstructuredGrid> 
</VTKFile> 
