<VTKFile type="UnstructuredGrid"  version="0.1"   > 
<UnstructuredGrid> 
<Piece  NumberOfPoints="  81" NumberOfCells=" 64"> 
<Points> 
<DataArray  type="Float64"  NumberOfComponents="3"  format="ascii" > 
0.707107 0.707107 0.0 
0.566635 0.823969 0.0 
0.397177 0.917742 0.0 
0.204909 0.978781 0.0 
0.000000 1.000000 0.0 
-0.204909 0.978781 0.0 
-0.397177 0.917742 0.0 
-0.566635 0.823969 0.0 
-0.707107 0.707107 0.0 
1.041379 1.041379 0.0 
0.821323 1.247322 0.0 
0.568495 1.407930 0.0 
0.290925 1.510331 0.0 
-0.000000 1.545543 0.0 
-0.290925 1.510331 0.0 
-0.568495 1.407930 0.0 
-0.821323 1.247322 0.0 
-1.041379 1.041379 0.0 
1.397748 1.397748 0.0 
1.087504 1.657588 0.0 
0.744895 1.855411 0.0 
0.378682 1.979402 0.0 
0.000000 2.021661 0.0 
-0.378682 1.979402 0.0 
-0.744895 1.855411 0.0 
-1.087504 1.657588 0.0 
-1.397748 1.397748 0.0 
1.776214 1.776214 0.0 
1.366357 2.057821 0.0 
0.927918 2.267987 0.0 
0.469218 2.397897 0.0 
0.000000 2.441857 0.0 
-0.469218 2.397897 0.0 
-0.927918 2.267987 0.0 
-1.366357 2.057821 0.0 
-1.776214 1.776214 0.0 
2.176777 2.176777 0.0 
1.659158 2.450800 0.0 
1.119118 2.652058 0.0 
0.563537 2.775101 0.0 
0.000000 2.816505 0.0 
-0.563537 2.775101 0.0 
-1.119118 2.652058 0.0 
-1.659158 2.450800 0.0 
-2.176777 2.176777 0.0 
2.599437 2.599437 0.0 
1.967303 2.839105 0.0 
1.320108 3.012982 0.0 
0.662653 3.118404 0.0 
-0.000000 3.153729 0.0 
-0.662653 3.118404 0.0 
-1.320108 3.012982 0.0 
-1.967303 2.839105 0.0 
-2.599437 2.599437 0.0 
3.044194 3.044194 0.0 
2.292325 3.225176 0.0 
1.532618 3.355342 0.0 
0.767636 3.433802 0.0 
-0.000000 3.460016 0.0 
-0.767636 3.433802 0.0 
-1.532618 3.355342 0.0 
-2.292325 3.225176 0.0 
-3.044194 3.044194 0.0 
3.511049 3.511049 0.0 
2.635925 3.611368 0.0 
1.758542 3.683148 0.0 
0.879649 3.726266 0.0 
-0.000000 3.740646 0.0 
-0.879649 3.726266 0.0 
-1.758542 3.683148 0.0 
-2.635925 3.611368 0.0 
-3.511049 3.511049 0.0 
4.000000 4.000000 0.0 
3.000000 4.000000 0.0 
2.000000 4.000000 0.0 
1.000000 4.000000 0.0 
-0.000000 4.000000 0.0 
-1.000000 4.000000 0.0 
-2.000000 4.000000 0.0 
-3.000000 4.000000 0.0 
-4.000000 4.000000 0.0 
</DataArray> 
</Points> 
<Cells> 
<DataArray  type="Int32"  Name="connectivity"  format="ascii"> 
0 1 10 9 
1 2 11 10 
2 3 12 11 
3 4 13 12 
4 5 14 13 
5 6 15 14 
6 7 16 15 
7 8 17 16 
9 10 19 18 
10 11 20 19 
11 12 21 20 
12 13 22 21 
13 14 23 22 
14 15 24 23 
15 16 25 24 
16 17 26 25 
18 19 28 27 
19 20 29 28 
20 21 30 29 
21 22 31 30 
22 23 32 31 
23 24 33 32 
24 25 34 33 
25 26 35 34 
27 28 37 36 
28 29 38 37 
29 30 39 38 
30 31 40 39 
31 32 41 40 
32 33 42 41 
33 34 43 42 
34 35 44 43 
36 37 46 45 
37 38 47 46 
38 39 48 47 
39 40 49 48 
40 41 50 49 
41 42 51 50 
42 43 52 51 
43 44 53 52 
45 46 55 54 
46 47 56 55 
47 48 57 56 
48 49 58 57 
49 50 59 58 
50 51 60 59 
51 52 61 60 
52 53 62 61 
54 55 64 63 
55 56 65 64 
56 57 66 65 
57 58 67 66 
58 59 68 67 
59 60 69 68 
60 61 70 69 
61 62 71 70 
63 64 73 72 
64 65 74 73 
65 66 75 74 
66 67 76 75 
67 68 77 76 
68 69 78 77 
69 70 79 78 
70 71 80 79 
</DataArray> 
<DataArray  type="Int32"  Name="offsets"  format="ascii"> 
4 
8 
12 
16 
20 
24 
28 
32 
36 
40 
44 
48 
52 
56 
60 
64 
68 
72 
76 
80 
84 
88 
92 
96 
100 
104 
108 
112 
116 
120 
124 
128 
132 
136 
140 
144 
148 
152 
156 
160 
164 
168 
172 
176 
180 
184 
188 
192 
196 
200 
204 
208 
212 
216 
220 
224 
228 
232 
236 
240 
244 
248 
252 
256 
</DataArray> 
<DataArray  type="UInt8"  Name="types"  format="ascii"> 
9 
9 
9 
9 
9 
9 
9 
9 
9 
9 
9 
9 
9 
9 
9 
9 
9 
9 
9 
9 
9 
9 
9 
9 
9 
9 
9 
9 
9 
9 
9 
9 
9 
9 
9 
9 
9 
9 
9 
9 
9 
9 
9 
9 
9 
9 
9 
9 
9 
9 
9 
9 
9 
9 
9 
9 
9 
9 
9 
9 
9 
9 
9 
9 
</DataArray> 
</Cells> 
<PointData  Vectors="sigma"> 
<DataArray  type="Float64"  Name="sigma" NumberOfComponents="3" format="ascii"> 
7719.92   4035.99   -5338.28   
15901.9   5431.03   -7645.11   
24991.2   5004.68   -7564.88   
32058.4   4032.2   -4686.16   
34719.2   3567.91   -4.27009e-11   
32058.4   4032.2   4686.16   
24991.2   5004.68   7564.88   
15901.9   5431.03   7645.11   
7719.92   4035.99   5338.28   
13501.3   -2068.61   -2381.76   
16232   -523.447   -570.93   
17079.1   1749.58   790.492   
16742.3   3832.58   920.124   
16429   4682.82   -1.92154e-11   
16742.3   3832.58   -920.124   
17079.1   1749.58   -790.492   
16232   -523.447   570.93   
13501.3   -2068.61   2381.76   
13124   -1946.81   -1072.83   
14295   -908.526   387.017   
14272   676.107   1090.81   
13879.3   1956.42   822.364   
13690.3   2419.95   2.34855e-11   
13879.3   1956.42   -822.364   
14272   676.107   -1090.81   
14295   -908.526   -387.017   
13124   -1946.81   1072.83   
12682.8   -1373.41   -412.98   
13458.6   -863.937   618.184   
13391.7   239.726   1158.62   
12987.2   1299.01   874.145   
12775.6   1728.04   -4.05658e-11   
12987.2   1299.01   -874.145   
13391.7   239.726   -1158.62   
13458.6   -863.937   -618.184   
12682.8   -1373.41   412.98   
12396.5   -855.091   -38.483   
12958   -678.289   654.694   
12879.7   -41.0401   1062.19   
12485.1   690.936   806.667   
12271.8   1010.28   3.41607e-11   
12485.1   690.936   -806.667   
12879.7   -41.0401   -1062.19   
12958   -678.289   -654.694   
12396.5   -855.091   38.483   
12362.6   -433.01   126.736   
12735.7   -457.889   592.77   
12597.5   -160.14   936.681   
12133.4   322.336   749.277   
11870.8   571.377   -2.66881e-11   
12133.4   322.336   -749.277   
12597.5   -160.14   -936.681   
12735.7   -457.889   -592.77   
12362.6   -433.01   -126.736   
12614.9   -131.979   119.064   
12774.7   -219.017   424.943   
12473.1   -175.183   730.928   
11806   66.6951   646.05   
11418   246.376   -3.20257e-11   
11806   66.6951   -646.05   
12473.1   -175.183   -730.928   
12774.7   -219.017   -424.943   
12614.9   -131.979   -119.064   
13157.3   5.75702   24.5798   
13123.5   -34.6128   177.855   
12566.1   -118.595   413.872   
11486.8   -79.9732   457.825   
10836.7   46.514   -2.02829e-11   
11486.8   -79.9732   -457.825   
12566.1   -118.595   -413.872   
13123.5   -34.6128   -177.855   
13157.3   5.75702   -24.5798   
13874.1   33.7877   -29.911   
13775.9   40.5938   -39.9417   
13001.5   -66.2018   -0.022024   
11205.9   -163.578   133.437   
10045.1   -35.6028   -6.19163e-11   
11205.9   -163.578   -133.437   
13001.5   -66.2018   0.022024   
13775.9   40.5938   39.9417   
13874.1   33.7877   29.911   
</DataArray> 
<DataArray  type="Float64"  Name="U" NumberOfComponents="3" format="ascii"> 
0.739233164450   -0.198438438291   0.0
0.691416368954   -0.212515094679   0.0
0.633954056701   -0.223965415580   0.0
0.569008392370   -0.231570828559   0.0
0.500000000000   -0.234244011541   0.0
0.430991607630   -0.231570828559   0.0
0.366045943299   -0.223965415580   0.0
0.308583631046   -0.212515094679   0.0
0.260766835550   -0.198438438291   0.0
0.706681164831   -0.171892420268   0.0
0.648893443221   -0.200740964720   0.0
0.594367759290   -0.228050516365   0.0
0.545297960658   -0.247494531104   0.0
0.500000000000   -0.254516128578   0.0
0.454702039342   -0.247494531104   0.0
0.405632240710   -0.228050516365   0.0
0.351106556779   -0.200740964720   0.0
0.293318835169   -0.171892420268   0.0
0.720013807844   -0.172850275328   0.0
0.659827319844   -0.203651082642   0.0
0.602874434810   -0.232197891633   0.0
0.550169041800   -0.251952912629   0.0
0.500000000000   -0.258951170122   0.0
0.449830958200   -0.251952912629   0.0
0.397125565190   -0.232197891633   0.0
0.340172680156   -0.203651082642   0.0
0.279986192156   -0.172850275328   0.0
0.748912678834   -0.179173095822   0.0
0.683525765343   -0.209350835588   0.0
0.619409671061   -0.238351620525   0.0
0.558525741041   -0.259267397714   0.0
0.500000000000   -0.266877133491   0.0
0.441474258959   -0.259267397714   0.0
0.380590328939   -0.238351620525   0.0
0.316474234657   -0.209350835588   0.0
0.251087321166   -0.179173095822   0.0
0.786565116387   -0.187077518085   0.0
0.713181589558   -0.215941753894   0.0
0.639504316209   -0.245139062197   0.0
0.568496700476   -0.267397761206   0.0
0.500000000000   -0.275776808746   0.0
0.431503299524   -0.267397761206   0.0
0.360495683791   -0.245139062197   0.0
0.286818410442   -0.215941753894   0.0
0.213434883613   -0.187077518085   0.0
0.830410524454   -0.195678382224   0.0
0.746129825363   -0.222465696815   0.0
0.660998111238   -0.251760761553   0.0
0.578841389991   -0.275821233713   0.0
0.500000000000   -0.285299606019   0.0
0.421158610009   -0.275821233713   0.0
0.339001888762   -0.251760761553   0.0
0.253870174637   -0.222465696815   0.0
0.169589475546   -0.195678382224   0.0
0.879864765153   -0.205689332514   0.0
0.781511956102   -0.228875812841   0.0
0.683060580555   -0.257696697929   0.0
0.589018539524   -0.283839037509   0.0
0.500000000000   -0.294735289032   0.0
0.410981460476   -0.283839037509   0.0
0.316939419445   -0.257696697929   0.0
0.218488043898   -0.228875812841   0.0
0.120135234847   -0.205689332514   0.0
0.935759337606   -0.218794130705   0.0
0.819567168419   -0.235845424564   0.0
0.705274987531   -0.262868332170   0.0
0.598453249633   -0.291070741617   0.0
0.500000000000   -0.303690983426   0.0
0.401546750367   -0.291070741617   0.0
0.294725012469   -0.262868332170   0.0
0.180432831581   -0.235845424564   0.0
0.064240662394   -0.218794130705   0.0
1.000000000000   -0.236720405010   0.0
0.861861305910   -0.244616777260   0.0
0.727935931117   -0.267691579122   0.0
0.606554175341   -0.297316958687   0.0
0.500000000000   -0.311807790953   0.0
0.393445824659   -0.297316958687   0.0
0.272064068883   -0.267691579122   0.0
0.138138694090   -0.244616777260   0.0
0.000000000000   -0.236720405010   0.0
</DataArray> 
</PointData> 
</Piece> 
</UnstructuredGrid> 
</VTKFile> 
