<VTKFile type="UnstructuredGrid"  version="0.1"   > 
<UnstructuredGrid> 
<Piece  NumberOfPoints="  1444" NumberOfCells=" 1369"> 
<Points> 
<DataArray  type="Float64"  NumberOfComponents="3"  format="ascii" > 
0.000000 0.000000 0.0 
0.098291 0.000000 0.0 
0.153846 0.000000 0.0 
0.205128 0.000000 0.0 
0.256410 0.000000 0.0 
0.307692 0.000000 0.0 
0.358974 0.000000 0.0 
0.410256 0.000000 0.0 
0.461538 0.000000 0.0 
0.512821 0.000000 0.0 
0.564103 0.000000 0.0 
0.615385 0.000000 0.0 
0.666667 0.000000 0.0 
0.717949 0.000000 0.0 
0.769231 0.000000 0.0 
0.820513 0.000000 0.0 
0.871795 0.000000 0.0 
0.923077 0.000000 0.0 
0.974359 0.000000 0.0 
1.025641 0.000000 0.0 
1.076923 0.000000 0.0 
1.128205 0.000000 0.0 
1.179487 0.000000 0.0 
1.230769 0.000000 0.0 
1.282051 0.000000 0.0 
1.333333 0.000000 0.0 
1.384615 0.000000 0.0 
1.435897 0.000000 0.0 
1.487179 0.000000 0.0 
1.538462 0.000000 0.0 
1.589744 0.000000 0.0 
1.641026 0.000000 0.0 
1.692308 0.000000 0.0 
1.743590 0.000000 0.0 
1.794872 0.000000 0.0 
1.846154 0.000000 0.0 
1.901709 0.000000 0.0 
2.000000 0.000000 0.0 
0.000000 0.098291 0.0 
0.098291 0.098291 0.0 
0.153846 0.098291 0.0 
0.205128 0.098291 0.0 
0.256410 0.098291 0.0 
0.307692 0.098291 0.0 
0.358974 0.098291 0.0 
0.410256 0.098291 0.0 
0.461538 0.098291 0.0 
0.512821 0.098291 0.0 
0.564103 0.098291 0.0 
0.615385 0.098291 0.0 
0.666667 0.098291 0.0 
0.717949 0.098291 0.0 
0.769231 0.098291 0.0 
0.820513 0.098291 0.0 
0.871795 0.098291 0.0 
0.923077 0.098291 0.0 
0.974359 0.098291 0.0 
1.025641 0.098291 0.0 
1.076923 0.098291 0.0 
1.128205 0.098291 0.0 
1.179487 0.098291 0.0 
1.230769 0.098291 0.0 
1.282051 0.098291 0.0 
1.333333 0.098291 0.0 
1.384615 0.098291 0.0 
1.435897 0.098291 0.0 
1.487179 0.098291 0.0 
1.538462 0.098291 0.0 
1.589744 0.098291 0.0 
1.641026 0.098291 0.0 
1.692308 0.098291 0.0 
1.743590 0.098291 0.0 
1.794872 0.098291 0.0 
1.846154 0.098291 0.0 
1.901709 0.098291 0.0 
2.000000 0.098291 0.0 
0.000000 0.153846 0.0 
0.098291 0.153846 0.0 
0.153846 0.153846 0.0 
0.205128 0.153846 0.0 
0.256410 0.153846 0.0 
0.307692 0.153846 0.0 
0.358974 0.153846 0.0 
0.410256 0.153846 0.0 
0.461538 0.153846 0.0 
0.512821 0.153846 0.0 
0.564103 0.153846 0.0 
0.615385 0.153846 0.0 
0.666667 0.153846 0.0 
0.717949 0.153846 0.0 
0.769231 0.153846 0.0 
0.820513 0.153846 0.0 
0.871795 0.153846 0.0 
0.923077 0.153846 0.0 
0.974359 0.153846 0.0 
1.025641 0.153846 0.0 
1.076923 0.153846 0.0 
1.128205 0.153846 0.0 
1.179487 0.153846 0.0 
1.230769 0.153846 0.0 
1.282051 0.153846 0.0 
1.333333 0.153846 0.0 
1.384615 0.153846 0.0 
1.435897 0.153846 0.0 
1.487179 0.153846 0.0 
1.538462 0.153846 0.0 
1.589744 0.153846 0.0 
1.641026 0.153846 0.0 
1.692308 0.153846 0.0 
1.743590 0.153846 0.0 
1.794872 0.153846 0.0 
1.846154 0.153846 0.0 
1.901709 0.153846 0.0 
2.000000 0.153846 0.0 
0.000000 0.205128 0.0 
0.098291 0.205128 0.0 
0.153846 0.205128 0.0 
0.205128 0.205128 0.0 
0.256410 0.205128 0.0 
0.307692 0.205128 0.0 
0.358974 0.205128 0.0 
0.410256 0.205128 0.0 
0.461538 0.205128 0.0 
0.512821 0.205128 0.0 
0.564103 0.205128 0.0 
0.615385 0.205128 0.0 
0.666667 0.205128 0.0 
0.717949 0.205128 0.0 
0.769231 0.205128 0.0 
0.820513 0.205128 0.0 
0.871795 0.205128 0.0 
0.923077 0.205128 0.0 
0.974359 0.205128 0.0 
1.025641 0.205128 0.0 
1.076923 0.205128 0.0 
1.128205 0.205128 0.0 
1.179487 0.205128 0.0 
1.230769 0.205128 0.0 
1.282051 0.205128 0.0 
1.333333 0.205128 0.0 
1.384615 0.205128 0.0 
1.435897 0.205128 0.0 
1.487179 0.205128 0.0 
1.538462 0.205128 0.0 
1.589744 0.205128 0.0 
1.641026 0.205128 0.0 
1.692308 0.205128 0.0 
1.743590 0.205128 0.0 
1.794872 0.205128 0.0 
1.846154 0.205128 0.0 
1.901709 0.205128 0.0 
2.000000 0.205128 0.0 
0.000000 0.256410 0.0 
0.098291 0.256410 0.0 
0.153846 0.256410 0.0 
0.205128 0.256410 0.0 
0.256410 0.256410 0.0 
0.307692 0.256410 0.0 
0.358974 0.256410 0.0 
0.410256 0.256410 0.0 
0.461538 0.256410 0.0 
0.512821 0.256410 0.0 
0.564103 0.256410 0.0 
0.615385 0.256410 0.0 
0.666667 0.256410 0.0 
0.717949 0.256410 0.0 
0.769231 0.256410 0.0 
0.820513 0.256410 0.0 
0.871795 0.256410 0.0 
0.923077 0.256410 0.0 
0.974359 0.256410 0.0 
1.025641 0.256410 0.0 
1.076923 0.256410 0.0 
1.128205 0.256410 0.0 
1.179487 0.256410 0.0 
1.230769 0.256410 0.0 
1.282051 0.256410 0.0 
1.333333 0.256410 0.0 
1.384615 0.256410 0.0 
1.435897 0.256410 0.0 
1.487179 0.256410 0.0 
1.538462 0.256410 0.0 
1.589744 0.256410 0.0 
1.641026 0.256410 0.0 
1.692308 0.256410 0.0 
1.743590 0.256410 0.0 
1.794872 0.256410 0.0 
1.846154 0.256410 0.0 
1.901709 0.256410 0.0 
2.000000 0.256410 0.0 
0.000000 0.307692 0.0 
0.098291 0.307692 0.0 
0.153846 0.307692 0.0 
0.205128 0.307692 0.0 
0.256410 0.307692 0.0 
0.307692 0.307692 0.0 
0.358974 0.307692 0.0 
0.410256 0.307692 0.0 
0.461538 0.307692 0.0 
0.512821 0.307692 0.0 
0.564103 0.307692 0.0 
0.615385 0.307692 0.0 
0.666667 0.307692 0.0 
0.717949 0.307692 0.0 
0.769231 0.307692 0.0 
0.820513 0.307692 0.0 
0.871795 0.307692 0.0 
0.923077 0.307692 0.0 
0.974359 0.307692 0.0 
1.025641 0.307692 0.0 
1.076923 0.307692 0.0 
1.128205 0.307692 0.0 
1.179487 0.307692 0.0 
1.230769 0.307692 0.0 
1.282051 0.307692 0.0 
1.333333 0.307692 0.0 
1.384615 0.307692 0.0 
1.435897 0.307692 0.0 
1.487179 0.307692 0.0 
1.538462 0.307692 0.0 
1.589744 0.307692 0.0 
1.641026 0.307692 0.0 
1.692308 0.307692 0.0 
1.743590 0.307692 0.0 
1.794872 0.307692 0.0 
1.846154 0.307692 0.0 
1.901709 0.307692 0.0 
2.000000 0.307692 0.0 
0.000000 0.358974 0.0 
0.098291 0.358974 0.0 
0.153846 0.358974 0.0 
0.205128 0.358974 0.0 
0.256410 0.358974 0.0 
0.307692 0.358974 0.0 
0.358974 0.358974 0.0 
0.410256 0.358974 0.0 
0.461538 0.358974 0.0 
0.512821 0.358974 0.0 
0.564103 0.358974 0.0 
0.615385 0.358974 0.0 
0.666667 0.358974 0.0 
0.717949 0.358974 0.0 
0.769231 0.358974 0.0 
0.820513 0.358974 0.0 
0.871795 0.358974 0.0 
0.923077 0.358974 0.0 
0.974359 0.358974 0.0 
1.025641 0.358974 0.0 
1.076923 0.358974 0.0 
1.128205 0.358974 0.0 
1.179487 0.358974 0.0 
1.230769 0.358974 0.0 
1.282051 0.358974 0.0 
1.333333 0.358974 0.0 
1.384615 0.358974 0.0 
1.435897 0.358974 0.0 
1.487179 0.358974 0.0 
1.538462 0.358974 0.0 
1.589744 0.358974 0.0 
1.641026 0.358974 0.0 
1.692308 0.358974 0.0 
1.743590 0.358974 0.0 
1.794872 0.358974 0.0 
1.846154 0.358974 0.0 
1.901709 0.358974 0.0 
2.000000 0.358974 0.0 
0.000000 0.410256 0.0 
0.098291 0.410256 0.0 
0.153846 0.410256 0.0 
0.205128 0.410256 0.0 
0.256410 0.410256 0.0 
0.307692 0.410256 0.0 
0.358974 0.410256 0.0 
0.410256 0.410256 0.0 
0.461538 0.410256 0.0 
0.512821 0.410256 0.0 
0.564103 0.410256 0.0 
0.615385 0.410256 0.0 
0.666667 0.410256 0.0 
0.717949 0.410256 0.0 
0.769231 0.410256 0.0 
0.820513 0.410256 0.0 
0.871795 0.410256 0.0 
0.923077 0.410256 0.0 
0.974359 0.410256 0.0 
1.025641 0.410256 0.0 
1.076923 0.410256 0.0 
1.128205 0.410256 0.0 
1.179487 0.410256 0.0 
1.230769 0.410256 0.0 
1.282051 0.410256 0.0 
1.333333 0.410256 0.0 
1.384615 0.410256 0.0 
1.435897 0.410256 0.0 
1.487179 0.410256 0.0 
1.538462 0.410256 0.0 
1.589744 0.410256 0.0 
1.641026 0.410256 0.0 
1.692308 0.410256 0.0 
1.743590 0.410256 0.0 
1.794872 0.410256 0.0 
1.846154 0.410256 0.0 
1.901709 0.410256 0.0 
2.000000 0.410256 0.0 
0.000000 0.461538 0.0 
0.098291 0.461538 0.0 
0.153846 0.461538 0.0 
0.205128 0.461538 0.0 
0.256410 0.461538 0.0 
0.307692 0.461538 0.0 
0.358974 0.461538 0.0 
0.410256 0.461538 0.0 
0.461538 0.461538 0.0 
0.512821 0.461538 0.0 
0.564103 0.461538 0.0 
0.615385 0.461538 0.0 
0.666667 0.461538 0.0 
0.717949 0.461538 0.0 
0.769231 0.461538 0.0 
0.820513 0.461538 0.0 
0.871795 0.461538 0.0 
0.923077 0.461538 0.0 
0.974359 0.461538 0.0 
1.025641 0.461538 0.0 
1.076923 0.461538 0.0 
1.128205 0.461538 0.0 
1.179487 0.461538 0.0 
1.230769 0.461538 0.0 
1.282051 0.461538 0.0 
1.333333 0.461538 0.0 
1.384615 0.461538 0.0 
1.435897 0.461538 0.0 
1.487179 0.461538 0.0 
1.538462 0.461538 0.0 
1.589744 0.461538 0.0 
1.641026 0.461538 0.0 
1.692308 0.461538 0.0 
1.743590 0.461538 0.0 
1.794872 0.461538 0.0 
1.846154 0.461538 0.0 
1.901709 0.461538 0.0 
2.000000 0.461538 0.0 
0.000000 0.512821 0.0 
0.098291 0.512821 0.0 
0.153846 0.512821 0.0 
0.205128 0.512821 0.0 
0.256410 0.512821 0.0 
0.307692 0.512821 0.0 
0.358974 0.512821 0.0 
0.410256 0.512821 0.0 
0.461538 0.512821 0.0 
0.512821 0.512821 0.0 
0.564103 0.512821 0.0 
0.615385 0.512821 0.0 
0.666667 0.512821 0.0 
0.717949 0.512821 0.0 
0.769231 0.512821 0.0 
0.820513 0.512821 0.0 
0.871795 0.512821 0.0 
0.923077 0.512821 0.0 
0.974359 0.512821 0.0 
1.025641 0.512821 0.0 
1.076923 0.512821 0.0 
1.128205 0.512821 0.0 
1.179487 0.512821 0.0 
1.230769 0.512821 0.0 
1.282051 0.512821 0.0 
1.333333 0.512821 0.0 
1.384615 0.512821 0.0 
1.435897 0.512821 0.0 
1.487179 0.512821 0.0 
1.538462 0.512821 0.0 
1.589744 0.512821 0.0 
1.641026 0.512821 0.0 
1.692308 0.512821 0.0 
1.743590 0.512821 0.0 
1.794872 0.512821 0.0 
1.846154 0.512821 0.0 
1.901709 0.512821 0.0 
2.000000 0.512821 0.0 
0.000000 0.564103 0.0 
0.098291 0.564103 0.0 
0.153846 0.564103 0.0 
0.205128 0.564103 0.0 
0.256410 0.564103 0.0 
0.307692 0.564103 0.0 
0.358974 0.564103 0.0 
0.410256 0.564103 0.0 
0.461538 0.564103 0.0 
0.512821 0.564103 0.0 
0.564103 0.564103 0.0 
0.615385 0.564103 0.0 
0.666667 0.564103 0.0 
0.717949 0.564103 0.0 
0.769231 0.564103 0.0 
0.820513 0.564103 0.0 
0.871795 0.564103 0.0 
0.923077 0.564103 0.0 
0.974359 0.564103 0.0 
1.025641 0.564103 0.0 
1.076923 0.564103 0.0 
1.128205 0.564103 0.0 
1.179487 0.564103 0.0 
1.230769 0.564103 0.0 
1.282051 0.564103 0.0 
1.333333 0.564103 0.0 
1.384615 0.564103 0.0 
1.435897 0.564103 0.0 
1.487179 0.564103 0.0 
1.538462 0.564103 0.0 
1.589744 0.564103 0.0 
1.641026 0.564103 0.0 
1.692308 0.564103 0.0 
1.743590 0.564103 0.0 
1.794872 0.564103 0.0 
1.846154 0.564103 0.0 
1.901709 0.564103 0.0 
2.000000 0.564103 0.0 
0.000000 0.615385 0.0 
0.098291 0.615385 0.0 
0.153846 0.615385 0.0 
0.205128 0.615385 0.0 
0.256410 0.615385 0.0 
0.307692 0.615385 0.0 
0.358974 0.615385 0.0 
[...]
<PointData  Vectors="sigma"> 
<DataArray  type="Float64"  Name="sigma" NumberOfComponents="3" format="ascii"> 
0.000738156   1.1413   0.000787698   
0.000502853   1.11791   0.000793685   
0.00053814   1.10426   0.000772927   
0.00110648   1.09148   0.000745689   
0.00211826   1.07828   0.000694355   
0.00378052   1.06444   0.000628999   
0.00627916   1.04976   0.000545357   
0.0097766   1.0341   0.000448514   
0.0143743   1.0174   0.000341388   
0.0200928   0.999733   0.000229935   
0.0268537   0.981295   0.000120688   
0.0344693   0.962441   2.0979e-05   
0.0426416   0.943672   -6.20876e-05   
0.0509752   0.925614   -0.000122144   
0.0590032   0.908979   -0.000155195   
0.0662255   0.894511   -0.00015944   
0.0721558   0.88292   -0.000136719   
0.0763722   0.874816   -9.17331e-05   
0.078563   0.870646   -3.2305e-05   
0.078563   0.870646   3.2305e-05   
0.0763722   0.874816   9.17331e-05   
0.0721558   0.88292   0.000136719   
0.0662255   0.894511   0.00015944   
0.0590032   0.908979   0.000155195   
0.0509752   0.925614   0.000122144   
0.0426416   0.943672   6.20876e-05   
0.0344693   0.962441   -2.0979e-05   
0.0268537   0.981295   -0.000120688   
0.0200928   0.999733   -0.000229935   
0.0143743   1.0174   -0.000341388   
0.0097766   1.0341   -0.000448514   
0.00627916   1.04976   -0.000545357   
0.00378052   1.06444   -0.000628999   
0.00211826   1.07828   -0.000694355   
0.00110648   1.09148   -0.000745689   
0.00053814   1.10426   -0.000772927   
0.000502853   1.11791   -0.000793685   
0.000738156   1.1413   -0.000787698   
0.000885079   1.14211   0.000272679   
0.000349163   1.11814   6.65385e-05   
1.85645e-06   1.10472   -0.000280383   
0.000293536   1.09233   -0.000937591   
0.000941598   1.07951   -0.00199104   
0.00226799   1.06605   -0.00345245   
0.00443939   1.05169   -0.00528457   
0.00766555   1.03623   -0.00739773   
0.0120661   1.01959   -0.00965581   
0.0176919   1.00177   -0.0118798   
0.024483   0.98298   -0.0138592   
0.0322621   0.963554   -0.0153689   
0.0407254   0.944019   -0.0161926   
0.049455   0.925052   -0.0161505   
0.0579437   0.907438   -0.0151274   
0.065638   0.892016   -0.013096   
0.0719927   0.879595   -0.0101311   
0.0765293   0.870878   -0.006409   
0.0788923   0.866382   -0.00219346   
0.0788923   0.866382   0.00219346   
0.0765293   0.870878   0.006409   
0.0719927   0.879595   0.0101311   
0.065638   0.892016   0.013096   
0.0579437   0.907438   0.0151274   
0.049455   0.925052   0.0161505   
0.0407254   0.944019   0.0161926   
0.0322621   0.963554   0.0153689   
0.024483   0.98298   0.0138592   
0.0176919   1.00177   0.0118798   
0.0120661   1.01959   0.00965581   
0.00766555   1.03623   0.00739773   
0.00443939   1.05169   0.00528457   
0.00226799   1.06605   0.00345245   
0.000941598   1.07951   0.00199104   
0.000293536   1.09233   0.000937591   
1.85645e-06   1.10472   0.000280383   
0.000349163   1.11814   -6.65385e-05   
0.000885079   1.14211   -0.000272679   
0.000851104   1.14208   -2.92475e-05   
6.38863e-06   1.11836   -0.000101251   
-0.000736518   1.10536   -0.000527574   
-0.000885948   1.0935   -0.00147949   
-0.00073122   1.08127   -0.00307239   
9.55779e-05   1.06839   -0.00532704   
0.00179232   1.05451   -0.00818907   
0.00460993   1.03939   -0.0115227   
0.00870837   1.02284   -0.0151184   
0.0141805   1.00486   -0.0186945   
0.0209991   0.985567   -0.0219147   
0.0290053   0.96532   -0.0244117   
0.0378912   0.944668   -0.0258266   
0.0472057   0.924356   -0.0258544   
0.0563833   0.905286   -0.024293   
0.0647894   0.888433   -0.0210852   
0.071787   0.874762   -0.0163434   
0.0768104   0.865118   -0.0103527   
0.0794358   0.860129   -0.00354544   
0.0794358   0.860129   0.00354544   
0.0768104   0.865118   0.0103527   
0.071787   0.874762   0.0163434   
0.0647894   0.888433   0.0210852   
0.0563833   0.905286   0.024293   
0.0472057   0.924356   0.0258544   
0.0378912   0.944668   0.0258266   
0.0290053   0.96532   0.0244117   
0.0209991   0.985567   0.0219147   
0.0141805   1.00486   0.0186945   
0.00870837   1.02284   0.0151184   
0.00460993   1.03939   0.0115227   
0.00179232   1.05451   0.00818907   
9.55779e-05   1.06839   0.00532704   
-0.00073122   1.08127   0.00307239   
-0.000885948   1.0935   0.00147949   
-0.000736518   1.10536   0.000527574   
6.38863e-06   1.11836   0.000101251   
0.000851104   1.14208   2.92475e-05   
0.00091761   1.1422   2.17406e-05   
-0.000402428   1.11847   0.000472838   
-0.00172086   1.10604   5.09234e-05   
-0.00242695   1.0949   -0.00110584   
-0.00294034   1.08346   -0.00318936   
-0.00278208   1.07134   -0.00620827   
-0.00174003   1.05812   -0.0101057   
0.000503735   1.04346   -0.0147037   
0.00416269   1.0271   -0.0197278   
0.00939252   1.00893   -0.0247954   
0.0162187   0.989042   -0.0294379   
0.0245146   0.967753   -0.0331317   
0.0339719   0.945649   -0.0353511   
0.0441016   0.923567   -0.0356382   
0.054253   0.902552   -0.0336777   
0.0636757   0.883777   -0.0293616   
0.0715981   0.868415   -0.0228342   
0.0773253   0.857512   -0.0144958   
0.0803302   0.85185   -0.00496998   
0.0803302   0.85185   0.00496998   
0.0773253   0.857512   0.0144958   
0.0715981   0.868415   0.0228342   
0.0636757   0.883777   0.0293616   
0.054253   0.902552   0.0336777   
0.0441016   0.923567   0.0356382   
0.0339719   0.945649   0.0353511   
0.0245146   0.967753   0.0331317   
0.0162187   0.989042   0.0294379   
0.00939252   1.00893   0.0247954   
0.00416269   1.0271   0.0197278   
0.000503735   1.04346   0.0147037   
-0.00174003   1.05812   0.0101057   
-0.00278208   1.07134   0.00620827   
-0.00294034   1.08346   0.00318936   
-0.00242695   1.0949   0.00110584   
-0.00172086   1.10604   -5.09234e-05   
-0.000402428   1.11847   -0.000472838   
0.00091761   1.1422   -2.17406e-05   
0.000945913   1.14165   0.000129517   
-0.000927918   1.11836   0.00147582   
-0.00290437   1.10678   0.00119995   
-0.00431077   1.09667   -6.51116e-05   
-0.00564512   1.08633   -0.00258134   
-0.0063417   1.0753   -0.00635132   
-0.006153   1.06305   -0.0113231   
-0.00468846   1.0491   -0.0172895   
-0.00165917   1.03308   -0.0239181   
0.0031808   1.01476   -0.0307253   
0.00993585   0.994129   -0.0370976   
0.0185403   0.971467   -0.0423233   
0.0287003   0.947379   -0.0456681   
0.039878   0.92282   -0.0464678   
0.0513198   0.899048   -0.0442419   
0.0621121   0.877512   -0.0388001   
0.0712947   0.859706   -0.0303052   
0.0779863   0.846974   -0.0192937   
0.0815153   0.840335   -0.00662367   
0.0815153   0.840335   0.00662367   
0.0779863   0.846974   0.0192937   
0.0712947   0.859706   0.0303052   
0.0621121   0.877512   0.0388001   
0.0513198   0.899048   0.0442419   
0.039878   0.92282   0.0464678   
0.0287003   0.947379   0.0456681   
0.0185403   0.971467   0.0423233   
0.00993585   0.994129   0.0370976   
0.0031808   1.01476   0.0307253   
-0.00165917   1.03308   0.0239181   
-0.00468846   1.0491   0.0172895   
-0.006153   1.06305   0.0113231   
-0.0063417   1.0753   0.00635132   
-0.00564512   1.08633   0.00258134   
-0.00431077   1.09667   6.51116e-05   
-0.00290437   1.10678   -0.00119995   
-0.000927918   1.11836   -0.00147582   
0.000945913   1.14165   -0.000129517   
0.0009835   1.14034   0.000310088   
-0.00151573   1.11783   0.00306698   
-0.0042624   1.1074   0.00308645   
-0.00646952   1.09864   0.0018458   
-0.00878129   1.08973   -0.00102513   
-0.0105152   1.08015   -0.00550719   
-0.011404   1.06919   -0.0115803   
-0.0109649   1.05627   -0.0190213   
-0.00881261   1.04083   -0.0274613   
-0.00457916   1.02248   -0.0363213   
0.0019673   1.00106   -0.0448292   
0.0108542   0.976737   -0.0520506   
0.0218308   0.950143   -0.0569737   
0.0343263   0.922363   -0.0586534   
0.0474413   0.894924   -0.0563741   
0.0600497   0.869672   -0.0498019   
0.0709237   0.848538   -0.0391075   
0.0789217   0.833301   -0.0249842   
0.0831586   0.825314   -0.00859351   
0.0831586   0.825314   0.00859351   
0.0789217   0.833301   0.0249842   
0.0709237   0.848538   0.0391075   
0.0600497   0.869672   0.0498019   
0.0474413   0.894924   0.0563741   
0.0343263   0.922363   0.0586534   
0.0218308   0.950143   0.0569737   
0.0108542   0.976737   0.0520506   
0.0019673   1.00106   0.0448292   
-0.00457916   1.02248   0.0363213   
-0.00881261   1.04083   0.0274613   
-0.0109649   1.05627   0.0190213   
-0.011404   1.06919   0.0115803   
-0.0105152   1.08015   0.00550719   
-0.00878129   1.08973   0.00102513   
-0.00646952   1.09864   -0.0018458   
-0.0042624   1.1074   -0.00308645   
-0.00151573   1.11783   -0.00306698   
0.0009835   1.14034   -0.000310088   
0.000993868   1.13775   0.000564144   
-0.00215026   1.11666   0.00525585   
-0.00568599   1.10778   0.005755   
-0.00876435   1.10072   0.00470004   
-0.0121544   1.09362   0.00160196   
-0.0150898   1.08588   -0.00350395   
-0.0172786   1.07665   -0.0106521   
-0.0181481   1.06517   -0.0196396   
-0.0171949   1.05069   -0.0300907   
-0.0138809   1.03255   -0.0413538   
-0.00780284   1.01036   -0.0524948   
0.00124639   0.984151   -0.0623088   
0.0131038   0.954465   -0.0694392   
0.0271614   0.92255   -0.07254   
0.0423753   0.890292   -0.0705351   
0.0573171   0.860055   -0.0628742   
0.0704015   0.834425   -0.0496906   
0.0801178   0.815781   -0.0318785   
0.0852996   0.805963   -0.010984   
0.0852996   0.805963   0.010984   
0.0801178   0.815781   0.0318785   
0.0704015   0.834425   0.0496906   
0.0573171   0.860055   0.0628742   
0.0423753   0.890292   0.0705351   
0.0271614   0.92255   0.07254   
0.0131038   0.954465   0.0694392   
0.00124639   0.984151   0.0623088   
-0.00780284   1.01036   0.0524948   
-0.0138809   1.03255   0.0413538   
-0.0171949   1.05069   0.0300907   
-0.0181481   1.06517   0.0196396   
-0.0172786   1.07665   0.0106521   
-0.0150898   1.08588   0.00350395   
-0.0121544   1.09362   -0.00160196   
-0.00876435   1.10072   -0.00470004   
-0.00568599   1.10778   -0.005755   
-0.00215026   1.11666   -0.00525585   
0.000993868   1.13775   -0.000564144   
0.000975391   1.13349   0.000895984   
-0.00276515   1.11464   0.00806308   
-0.00705575   1.10771   0.0092345   
-0.0109996   1.10273   0.00856511   
-0.0155153   1.09784   0.00541741   
-0.0197682   1.09239   -0.000147908   
-0.0234744   1.08539   -0.00826779   
-0.0259705   1.0759   -0.0187978   
-0.0266194   1.06289   -0.0314217   
-0.0246755   1.04541   -0.0454586   
-0.0194549   1.0227   -0.0598297   
-0.0105242   0.994435   -0.0730258   
0.00215484   0.961086   -0.0832016   
0.0180181   0.923977   -0.0884697   
0.0357987   0.88545   -0.0872356   
0.0537097   0.848633   -0.0785768   
0.0696462   0.81695   -0.0625682   
0.0816037   0.793688   -0.0403283   
0.0880024   0.781369   -0.0139338   
0.0880024   0.781369   0.0139338   
0.0816037   0.793688   0.0403283   
0.0696462   0.81695   0.0625682   
0.0537097   0.848633   0.0785768   
0.0357987   0.88545   0.0872356   
0.0180181   0.923977   0.0884697   
0.00215484   0.961086   0.0832016   
-0.0105242   0.994435   0.0730258   
-0.0194549   1.0227   0.0598297   
-0.0246755   1.04541   0.0454586   
-0.0266194   1.06289   0.0314217   
-0.0259705   1.0759   0.0187978   
-0.0234744   1.08539   0.00826779   
-0.0197682   1.09239   0.000147908   
-0.0155153   1.09784   -0.00541741   
-0.0109996   1.10273   -0.00856511   
-0.00705575   1.10771   -0.0092345   
-0.00276515   1.11464   -0.00806308   
0.000975391   1.13349   -0.000895984   
0.000906607   1.12713   0.0012975   
-0.00329413   1.11154   0.0114157   
-0.00819188   1.10699   0.013459   
-0.0129134   1.10445   0.0134014   
-0.0184937   1.10219   0.0104544   
-0.0241114   1.09949   0.00468866   
-0.0295011   1.0953   -0.0041661   
-0.0339611   1.08847   -0.0161076   
-0.036712   1.07769   -0.0309517   
-0.0367475   1.06155   -0.0480905   
-0.0330566   1.03876   -0.0663445   
-0.0247219   1.00852   -0.0838688   
-0.0114213   0.970876   -0.0982683   
0.00636972   0.927323   -0.106826   
0.0272392   0.8807   -0.107132   
0.0488344   0.835109   -0.0977166   
0.0684002   0.795358   -0.0784624   
0.0832203   0.765917   -0.0508378   
0.0912119   0.750253   -0.0175939   
0.0912119   0.750253   0.0175939   
0.0832203   0.765917   0.0508378   
0.0684002   0.795358   0.0784624   
0.0488344   0.835109   0.0977166   
0.0272392   0.8807   0.107132   
0.00636972   0.927323   0.106826   
-0.0114213   0.970876   0.0982683   
-0.0247219   1.00852   0.0838688   
-0.0330566   1.03876   0.0663445   
-0.0367475   1.06155   0.0480905   
-0.036712   1.07769   0.0309517   
-0.0339611   1.08847   0.0161076   
-0.0295011   1.0953   0.0041661   
-0.0241114   1.09949   -0.00468866   
-0.0184937   1.10219   -0.0104544   
-0.0129134   1.10445   -0.0134014   
-0.00819188   1.10699   -0.013459   
-0.00329413   1.11154   -0.0114157   
0.000906607   1.12713   -0.0012975   
0.000780051   1.11834   0.00175442   
-0.00364244   1.10717   0.0151678   
-0.0088876   1.10542   0.0182616   
-0.0141675   1.10565   0.0190676   
-0.0206288   1.10634   0.0166338   
-0.0275132   1.10686   0.0110591   
-0.0346707   1.10606   0.0018674   
-0.0413851   1.10273   -0.0111323   
-0.0468012   1.09516   -0.028055   
-0.0496269   1.08146   -0.0484922   
-0.0483174   1.05956   -0.0713352   
-0.0414858   1.02774   -0.0944301   
-0.0281034   0.985566   -0.114531   
-0.00833669   0.934071   -0.127866   
0.0161172   0.876965   -0.130811   
0.0423118   0.819827   -0.120972   
0.0664117   0.769132   -0.0980459   
0.0848101   0.73125   -0.0638581   
0.0947185   0.711045   -0.0221797   
0.0947185   0.711045   0.0221797   
0.0848101   0.73125   0.0638581   
0.0664117   0.769132   0.0980459   
0.0423118   0.819827   0.120972   
0.0161172   0.876965   0.130811   
-0.00833669   0.934071   0.127866   
-0.0281034   0.985566   0.114531   
-0.0414858   1.02774   0.0944301   
-0.0483174   1.05956   0.0713352   
-0.0496269   1.08146   0.0484922   
-0.0468012   1.09516   0.028055   
-0.0413851   1.10273   0.0111323   
-0.0346707   1.10606   -0.0018674   
-0.0275132   1.10686   -0.0110591   
-0.0206288   1.10634   -0.0166338   
-0.0141675   1.10565   -0.0190676   
-0.0088876   1.10542   -0.0182616   
-0.00364244   1.10717   -0.0151678   
0.000780051   1.11834   -0.00175442   
0.00057327   1.1069   0.00223215   
-0.00371208   1.10138   0.0190689   
-0.00889943   1.1028   0.0233525   
-0.0143921   1.10599   0.0252605   
-0.0213439   1.10991   0.0237237   
-0.0292345   1.11397   0.0188413   
-0.038019   1.1172   0.00994882   
-0.047184   1.11821   -0.00348717   
-0.0558105   1.11518   -0.0219701   
-0.0624209   1.10539   -0.0456083   
-0.0649733   1.08585   -0.073531   
-0.0608994   1.05346   -0.10347   
-0.0484417   1.00615   -0.131461   
-0.0270526   0.945201   -0.151924   
0.00152476   0.874513   -0.159301   
0.0331522   0.801824   -0.149747   
0.0628179   0.736708   -0.122444   
0.0855596   0.687882   -0.0801225   
0.097853   0.661716   -0.0278241   
0.097853   0.661716   0.0278241   
0.0855596   0.687882   0.0801225   
0.0628179   0.736708   0.122444   
0.0331522   0.801824   0.149747   
0.00152476   0.874513   0.159301   
-0.0270526   0.945201   0.151924   
-0.0484417   1.00615   0.131461   
-0.0608994   1.05346   0.10347   
-0.0649733   1.08585   0.073531   
-0.0624209   1.10539   0.0456083   
-0.0558105   1.11518   0.0219701   
-0.047184   1.11821   0.00348717   
-0.038019   1.1172   -0.00994882   
-0.0292345   1.11397   -0.0188413   
-0.0213439   1.10991   -0.0237237   
-0.0143921   1.10599   -0.0252605   
-0.00889943   1.1028   -0.0233525   
-0.00371208   1.10138   -0.0190689   
0.00057327   1.1069   -0.00223215   
0.000293467   1.09281   0.00269317   
-0.00340423   1.09416   0.0227717   
-0.0080137   1.09896   0.0282981   
-0.0131893   1.10522   0.0315146   
-0.0200707   1.11239   0.0312543   
-0.0283732   1.12023   0.0276969   
-0.0384084   1.12785   0.0199159   
-0.0498322   1.13419   0.00709448   
-0.0620863   1.13704   -0.011986   
-0.0734884   1.13348   -0.0381379   
-0.0813607   1.11882   -0.0714618   
-0.0823692   1.08821   -0.109846   
-0.0724986   1.03762   -0.148145   
-0.0502026   0.965079   -0.178728   
-0.01721   0.876721   -0.192817   
0.0211803   0.783181   -0.184254   
0.0572521   0.698021   -0.152015   
0.0846423   0.633957   -0.0997377   
0.0992185   0.600038   -0.0347549   
0.0992185   0.600038   0.0347549   
0.0846423   0.633957   0.0997377   
0.0572521   0.698021   0.152015   
0.0211803   0.783181   0.184254   
-0.01721   0.876721   0.192817   
-0.0502026   0.965079   0.178728   
-0.0724986   1.03762   0.148145   
-0.0823692   1.08821   0.109846   
-0.0813607   1.11882   0.0714618   
-0.0734884   1.13348   0.0381379   
-0.0620863   1.13704   0.011986   
-0.0498322   1.13419   -0.00709448   
-0.0384084   1.12785   -0.0199159   
-0.0283732   1.12023   -0.0276969   
-0.0200707   1.11239   -0.0312543   
-0.0131893   1.10522   -0.0315146   
-0.0080137   1.09896   -0.0282981   
-0.00340423   1.09416   -0.0227717   
0.000293467   1.09281   -0.00269317   
-7.89537e-05   1.07633   0.00307255   
-0.00265548   1.08558   0.0258416   
-0.0060526   1.09387   0.0325532   
-0.010295   1.10302   0.0371577   
-0.0162431   1.11335   0.0385296   
-0.0241473   1.12477   0.0368866   
-0.0344412   1.13705   0.0312631   
-0.0475728   1.14917   0.0203811   
-0.0631707   1.15966   0.00249732   
-0.0803372   1.16454   -0.0246239   
-0.0960843   1.1586   -0.0622961   
-0.104924   1.1327   -0.110027   
-0.101258   1.07805   -0.162609   
-0.0797284   0.993082   -0.208469   
-0.0419522   0.88094   -0.23364   
0.00365098   0.759057   -0.227407   
0.0469217   0.648571   -0.18808   
0.0790174   0.566916   -0.123126   
0.0956241   0.523503   -0.0425952   
0.0956241   0.523503   0.0425952   
0.0790174   0.566916   0.123126   
0.0469217   0.648571   0.18808   
0.00365098   0.759057   0.227407   
-0.0419522   0.88094   0.23364   
-0.0797284   0.993082   0.208469   
-0.101258   1.07805   0.162609   
-0.104924   1.1327   0.110027   
-0.0960843   1.1586   0.0622961   
-0.0803372   1.16454   0.0246239   
-0.0631707   1.15966   -0.00249732   
-0.0475728   1.14917   -0.0203811   
-0.0344412   1.13705   -0.0312631   
-0.0241473   1.12477   -0.0368866   
-0.0162431   1.11335   -0.0385296   
-0.010295   1.10302   -0.0371577   
-0.0060526   1.09387   -0.0325532   
-0.00265548   1.08558   -0.0258416   
-7.89537e-05   1.07633   -0.00307255   
-0.000503756   1.0581   0.00332047   
-0.00145046   1.07594   0.0278098   
-0.00301822   1.08756   0.0354762   
-0.00556208   1.09933   0.0414049   
-0.00967874   1.11231   0.0445337   
-0.0158356   1.12697   0.0453335   
-0.0251201   1.14335   0.0427325   
-0.038144   1.16166   0.0355427   
-0.0561677   1.18034   0.0210738   
-0.0784585   1.19724   -0.00389787   
-0.103196   1.20459   -0.0439886   
-0.124533   1.19307   -0.101094   
-0.130635   1.14625   -0.170999   
-0.113535   1.04611   -0.238722   
-0.0712289   0.902348   -0.279613   
-0.0161427   0.738694   -0.276082   
0.0326391   0.591047   -0.228079   
0.0653478   0.484183   -0.147601   
0.0810718   0.430847   -0.0509592   
0.0810718   0.430847   0.0509592   
0.0653478   0.484183   0.147601   
0.0326391   0.591047   0.228079   
-0.0161427   0.738694   0.276082   
-0.0712289   0.902348   0.279613   
-0.113535   1.04611   0.238722   
-0.130635   1.14625   0.170999   
-0.124533   1.19307   0.101094   
-0.103196   1.20459   0.0439886   
-0.0784585   1.19724   0.00389787   
-0.0561677   1.18034   -0.0210738   
-0.038144   1.16166   -0.0355427   
-0.0251201   1.14335   -0.0427325   
-0.0158356   1.12697   -0.0453335   
-0.00967874   1.11231   -0.0445337   
-0.00556208   1.09933   -0.0414049   
-0.00301822   1.08756   -0.0354762   
-0.00145046   1.07594   -0.0278098   
-0.000503756   1.0581   -0.00332047   
-0.000989037   1.03903   0.00336338   
0.000127014   1.06566   0.0282369   
0.000954073   1.08035   0.0364678   
0.000702474   1.09418   0.0433723   
-0.000450549   1.10925   0.0481634   
-0.00365711   1.12612   0.051411   
-0.00959902   1.14596   0.0525344   
-0.0204235   1.16905   0.0502029   