<VTKFile type="UnstructuredGrid"  version="0.1"   > 
<UnstructuredGrid> 
<Piece  NumberOfPoints="  8385" NumberOfCells=" 8192"> 
<Points> 
<DataArray  type="Float64"  NumberOfComponents="3"  format="ascii" > 
-1.000000 0.000000 0.0 
-0.999939 0.011074 0.0 
-0.999754 0.022196 0.0 
-0.999443 0.033365 0.0 
-0.999006 0.044580 0.0 
-0.998440 0.055838 0.0 
-0.997744 0.067138 0.0 
-0.996916 0.078478 0.0 
-0.995955 0.089854 0.0 
-0.994859 0.101267 0.0 
-0.993628 0.112713 0.0 
-0.992259 0.124189 0.0 
-0.990751 0.135695 0.0 
-0.989103 0.147228 0.0 
-0.987313 0.158785 0.0 
-0.985381 0.170364 0.0 
-0.983305 0.181963 0.0 
-0.981085 0.193579 0.0 
-0.978718 0.205210 0.0 
-0.976204 0.216853 0.0 
-0.973543 0.228505 0.0 
-0.970732 0.240165 0.0 
-0.967772 0.251828 0.0 
-0.964661 0.263494 0.0 
-0.961399 0.275158 0.0 
-0.957985 0.286819 0.0 
-0.954418 0.298472 0.0 
-0.950698 0.310117 0.0 
-0.946825 0.321749 0.0 
-0.942798 0.333365 0.0 
-0.938616 0.344964 0.0 
-0.934280 0.356541 0.0 
-0.929788 0.368095 0.0 
-0.925142 0.379621 0.0 
-0.920341 0.391117 0.0 
-0.915385 0.402581 0.0 
-0.910273 0.414008 0.0 
-0.905007 0.425396 0.0 
-0.899587 0.436742 0.0 
-0.894012 0.448042 0.0 
-0.888284 0.459295 0.0 
-0.882402 0.470496 0.0 
-0.876368 0.481642 0.0 
-0.870181 0.492732 0.0 
-0.863844 0.503760 0.0 
-0.857355 0.514725 0.0 
-0.850717 0.525624 0.0 
-0.843930 0.536453 0.0 
-0.836996 0.547210 0.0 
-0.829914 0.557891 0.0 
-0.822688 0.568493 0.0 
-0.815317 0.579014 0.0 
-0.807804 0.589451 0.0 
-0.800149 0.599801 0.0 
-0.792355 0.610060 0.0 
-0.784422 0.620227 0.0 
-0.776353 0.630298 0.0 
-0.768149 0.640271 0.0 
-0.759812 0.650143 0.0 
-0.751344 0.659911 0.0 
-0.742747 0.669572 0.0 
-0.734022 0.679125 0.0 
-0.725173 0.688567 0.0 
-0.716200 0.697895 0.0 
-0.707107 0.707107 0.0 
-0.697895 0.716200 0.0 
-0.688567 0.725173 0.0 
-0.679125 0.734022 0.0 
-0.669572 0.742747 0.0 
-0.659911 0.751344 0.0 
-0.650143 0.759812 0.0 
-0.640271 0.768149 0.0 
-0.630298 0.776353 0.0 
-0.620227 0.784422 0.0 
-0.610060 0.792355 0.0 
-0.599801 0.800149 0.0 
-0.589451 0.807804 0.0 
-0.579014 0.815317 0.0 
-0.568493 0.822688 0.0 
-0.557891 0.829914 0.0 
-0.547210 0.836996 0.0 
-0.536453 0.843930 0.0 
-0.525624 0.850717 0.0 
-0.514725 0.857355 0.0 
-0.503760 0.863844 0.0 
-0.492732 0.870181 0.0 
-0.481642 0.876368 0.0 
-0.470496 0.882402 0.0 
-0.459295 0.888284 0.0 
-0.448042 0.894012 0.0 
-0.436742 0.899587 0.0 
-0.425396 0.905007 0.0 
-0.414008 0.910273 0.0 
-0.402581 0.915385 0.0 
-0.391117 0.920341 0.0 
-0.379621 0.925142 0.0 
-0.368095 0.929788 0.0 
-0.356541 0.934280 0.0 
-0.344964 0.938616 0.0 
-0.333365 0.942798 0.0 
-0.321749 0.946825 0.0 
-0.310117 0.950698 0.0 
-0.298472 0.954418 0.0 
-0.286819 0.957985 0.0 
-0.275158 0.961399 0.0 
-0.263494 0.964661 0.0 
-0.251828 0.967772 0.0 
-0.240165 0.970732 0.0 
-0.228505 0.973543 0.0 
-0.216853 0.976204 0.0 
-0.205210 0.978718 0.0 
-0.193579 0.981085 0.0 
-0.181963 0.983305 0.0 
-0.170364 0.985381 0.0 
-0.158785 0.987313 0.0 
-0.147228 0.989103 0.0 
-0.135695 0.990751 0.0 
-0.124189 0.992259 0.0 
-0.112713 0.993628 0.0 
-0.101267 0.994859 0.0 
-0.089854 0.995955 0.0 
-0.078478 0.996916 0.0 
-0.067138 0.997744 0.0 
-0.055838 0.998440 0.0 
-0.044580 0.999006 0.0 
-0.033365 0.999443 0.0 
-0.022196 0.999754 0.0 
-0.011074 0.999939 0.0 
0.000000 1.000000 0.0 
-1.046875 0.000000 0.0 
-1.047016 0.011484 0.0 
-1.047023 0.023021 0.0 
-1.046893 0.034608 0.0 
-1.046625 0.046244 0.0 
-1.046217 0.057927 0.0 
-1.045667 0.069655 0.0 
-1.044975 0.081426 0.0 
-1.044137 0.093238 0.0 
-1.043153 0.105089 0.0 
-1.042021 0.116977 0.0 
-1.040740 0.128900 0.0 
-1.039308 0.140856 0.0 
-1.037723 0.152842 0.0 
-1.035985 0.164856 0.0 
-1.034091 0.176896 0.0 
-1.032041 0.188959 0.0 
-1.029834 0.201043 0.0 
-1.027468 0.213145 0.0 
-1.024942 0.225264 0.0 
-1.022255 0.237396 0.0 
-1.019406 0.249538 0.0 
-1.016394 0.261689 0.0 
-1.013218 0.273845 0.0 
-1.009878 0.286004 0.0 
-1.006372 0.298163 0.0 
-1.002700 0.310319 0.0 
-0.998862 0.322469 0.0 
-0.994856 0.334611 0.0 
-0.990683 0.346742 0.0 
-0.986341 0.358858 0.0 
-0.981831 0.370958 0.0 
-0.977152 0.383037 0.0 
-0.972304 0.395093 0.0 
-0.967287 0.407123 0.0 
-0.962101 0.419124 0.0 
-0.956746 0.431093 0.0 
-0.951222 0.443027 0.0 
-0.945530 0.454922 0.0 
-0.939669 0.466777 0.0 
-0.933640 0.478587 0.0 
-0.927443 0.490350 0.0 
-0.921079 0.502062 0.0 
-0.914549 0.513721 0.0 
-0.907853 0.525324 0.0 
-0.900992 0.536866 0.0 
-0.893967 0.548347 0.0 
-0.886779 0.559762 0.0 
-0.879429 0.571108 0.0 
-0.871918 0.582382 0.0 
-0.864247 0.593582 0.0 
-0.856418 0.604705 0.0 
-0.848432 0.615747 0.0 
-0.840290 0.626705 0.0 
-0.831994 0.637577 0.0 
-0.823545 0.648361 0.0 
-0.814946 0.659052 0.0 
-0.806197 0.669648 0.0 
-0.797301 0.680148 0.0 
-0.788260 0.690547 0.0 
-0.779076 0.700843 0.0 
-0.769751 0.711034 0.0 
-0.760286 0.721117 0.0 
-0.750685 0.731089 0.0 
-0.740949 0.740949 0.0 
-0.731089 0.750685 0.0 
-0.721117 0.760286 0.0 
-0.711034 0.769751 0.0 
-0.700843 0.779076 0.0 
-0.690547 0.788260 0.0 
-0.680148 0.797301 0.0 
-0.669648 0.806197 0.0 
-0.659052 0.814946 0.0 
-0.648361 0.823545 0.0 
-0.637577 0.831994 0.0 
-0.626705 0.840290 0.0 
-0.615747 0.848432 0.0 
-0.604705 0.856418 0.0 
-0.593582 0.864247 0.0 
-0.582382 0.871918 0.0 
-0.571108 0.879429 0.0 
-0.559762 0.886779 0.0 
-0.548347 0.893967 0.0 
-0.536866 0.900992 0.0 
-0.525324 0.907853 0.0 
-0.513721 0.914549 0.0 
-0.502062 0.921079 0.0 
-0.490350 0.927443 0.0 
-0.478587 0.933640 0.0 
-0.466777 0.939669 0.0 
-0.454922 0.945530 0.0 
-0.443027 0.951222 0.0 
-0.431093 0.956746 0.0 
-0.419124 0.962101 0.0 
-0.407123 0.967287 0.0 
-0.395093 0.972304 0.0 
-0.383037 0.977152 0.0 
-0.370958 0.981831 0.0 
-0.358858 0.986341 0.0 
-0.346742 0.990683 0.0 
-0.334611 0.994856 0.0 
-0.322469 0.998862 0.0 
-0.310319 1.002700 0.0 
-0.298163 1.006372 0.0 
-0.286004 1.009878 0.0 
-0.273845 1.013218 0.0 
-0.261689 1.016394 0.0 
-0.249538 1.019406 0.0 
-0.237396 1.022255 0.0 
-0.225264 1.024942 0.0 
-0.213145 1.027468 0.0 
-0.201043 1.029834 0.0 
-0.188959 1.032041 0.0 
-0.176896 1.034091 0.0 
-0.164856 1.035985 0.0 
-0.152842 1.037723 0.0 
-0.140856 1.039308 0.0 
-0.128900 1.040740 0.0 
-0.116977 1.042021 0.0 
-0.105089 1.043153 0.0 
-0.093238 1.044137 0.0 
-0.081426 1.044975 0.0 
-0.069655 1.045667 0.0 
-0.057927 1.046217 0.0 
-0.046244 1.046625 0.0 
-0.034608 1.046893 0.0 
-0.023021 1.047023 0.0 
-0.011484 1.047016 0.0 
0.000000 1.046875 0.0 
-1.093750 0.000000 0.0 
-1.094081 0.011938 0.0 
-1.094266 0.023931 0.0 
-1.094305 0.035977 0.0 
-1.094194 0.048075 0.0 
-1.093933 0.060222 0.0 
-1.093519 0.072416 0.0 
-1.092951 0.084657 0.0 
-1.092227 0.096941 0.0 
-1.091345 0.109267 0.0 
-1.090304 0.121632 0.0 
-1.089102 0.134035 0.0 
-1.087737 0.146473 0.0 
-1.086208 0.158944 0.0 
-1.084514 0.171445 0.0 
-1.082653 0.183975 0.0 
-1.080623 0.196531 0.0 
-1.078424 0.209111 0.0 
-1.076053 0.221711 0.0 
-1.073511 0.234330 0.0 
-1.070795 0.246965 0.0 
-1.067905 0.259613 0.0 
-1.064840 0.272273 0.0 
-1.061598 0.284940 0.0 
-1.058179 0.297612 0.0 
-1.054582 0.310288 0.0 
-1.050806 0.322963 0.0 
-1.046851 0.335635 0.0 
-1.042715 0.348301 0.0 
-1.038399 0.360959 0.0 
-1.033901 0.373605 0.0 
-1.029223 0.386236 0.0 
-1.024362 0.398850 0.0 
-1.019319 0.411444 0.0 
-1.014094 0.424014 0.0 
-1.008686 0.436558 0.0 
-1.003096 0.449073 0.0 
-0.997324 0.461555 0.0 
-0.991370 0.474002 0.0 
-0.985234 0.486410 0.0 
-0.978917 0.498776 0.0 
-0.972419 0.511098 0.0 
-0.965740 0.523372 0.0 
-0.958881 0.535596 0.0 
-0.951843 0.547765 0.0 
-0.944626 0.559878 0.0 
-0.937232 0.571931 0.0 
-0.929662 0.583921 0.0 
-0.921915 0.595845 0.0 
-0.913995 0.607699 0.0 
-0.905900 0.619482 0.0 
-0.897634 0.631190 0.0 
-0.889198 0.642820 0.0 
-0.880592 0.654369 0.0 
-0.871818 0.665834 0.0 
-0.862879 0.677213 0.0 
-0.853775 0.688502 0.0 
-0.844509 0.699699 0.0 
-0.835083 0.710801 0.0 
-0.825497 0.721805 0.0 
-0.815756 0.732708 0.0 
-0.805859 0.743509 0.0 
-0.795811 0.754203 0.0 
-0.785612 0.764790 0.0 
-0.775266 0.775266 0.0 
-0.764790 0.785612 0.0 
-0.754203 0.795811 0.0 
-0.743509 0.805859 0.0 
-0.732708 0.815756 0.0 
-0.721805 0.825497 0.0 
-0.710801 0.835083 0.0 
-0.699699 0.844509 0.0 
-0.688502 0.853775 0.0 
-0.677213 0.862879 0.0 
-0.665834 0.871818 0.0 
-0.654369 0.880592 0.0 
-0.642820 0.889198 0.0 
-0.631190 0.897634 0.0 
-0.619482 0.905900 0.0 
-0.607699 0.913995 0.0 
-0.595845 0.921915 0.0 
-0.583921 0.929662 0.0 
-0.571931 0.937232 0.0 
-0.559878 0.944626 0.0 
-0.547765 0.951843 0.0 
-0.535596 0.958881 0.0 
-0.523372 0.965740 0.0 
-0.511098 0.972419 0.0 
-0.498776 0.978917 0.0 
-0.486410 0.985234 0.0 
-0.474002 0.991370 0.0 
-0.461555 0.997324 0.0 
-0.449073 1.003096 0.0 
-0.436558 1.008686 0.0 
-0.424014 1.014094 0.0 
-0.411444 1.019319 0.0 
-0.398850 1.024362 0.0 
-0.386236 1.029223 0.0 
-0.373605 1.033901 0.0 
-0.360959 1.038399 0.0 
-0.348301 1.042715 0.0 
-0.335635 1.046851 0.0 
-0.322963 1.050806 0.0 
-0.310288 1.054582 0.0 
-0.297612 1.058179 0.0 
-0.284940 1.061598 0.0 
-0.272273 1.064840 0.0 
-0.259613 1.067905 0.0 
-0.246965 1.070795 0.0 
-0.234330 1.073511 0.0 
-0.221711 1.076053 0.0 
-0.209111 1.078424 0.0 
-0.196531 1.080623 0.0 
-0.183975 1.082653 0.0 
-0.171445 1.084514 0.0 
-0.158944 1.086208 0.0 
-0.146473 1.087737 0.0 
-0.134035 1.089102 0.0 
-0.121632 1.090304 0.0 
-0.109267 1.091345 0.0 
-0.096941 1.092227 0.0 
-0.084657 1.092951 0.0 
-0.072416 1.093519 0.0 
-0.060222 1.093933 0.0 
-0.048075 1.094194 0.0 
-0.035977 1.094305 0.0 
-0.023931 1.094266 0.0 
-0.011938 1.094081 0.0 
0.000000 1.093750 0.0 
-1.140625 0.000000 0.0 
-1.141133 0.012435 0.0 
-1.141485 0.024926 0.0 
-1.141680 0.037473 0.0 
-1.141715 0.050072 0.0 
-1.141590 0.062723 0.0 
-1.141301 0.075423 0.0 
-1.140848 0.088170 0.0 
-1.140227 0.100963 0.0 
-1.139438 0.113799 0.0 
-1.138479 0.126676 0.0 
-1.137348 0.139592 0.0 
-1.136043 0.152545 0.0 
-1.134563 0.165532 0.0 
-1.132906 0.178551 0.0 
-1.131070 0.191601 0.0 
-1.129056 0.204678 0.0 
-1.126859 0.217779 0.0 
-1.124481 0.230904 0.0 
-1.121919 0.244048 0.0 
-1.119172 0.257210 0.0 
[...]
<PointData  Vectors="U"> 
<DataArray  type="Float64"  Name="U" NumberOfComponents="3" format="ascii"> 
-0.00422933   -1.00131   -1.08283e-05   
-0.00439177   -1.00069   -0.0109432   
-0.00478092   -0.998845   -0.0218896   
-0.00540621   -0.995758   -0.0328056   
-0.00626722   -0.991418   -0.0436515   
-0.00736106   -0.985814   -0.054387   
-0.00868293   -0.978938   -0.0649713   
-0.0102263   -0.970787   -0.0753627   
-0.011983   -0.961359   -0.0855192   
-0.0139428   -0.950655   -0.0953983   
-0.0160936   -0.938679   -0.104957   
-0.0184215   -0.925439   -0.114153   
-0.0209104   -0.910944   -0.122943   
-0.0235424   -0.895206   -0.131285   
-0.0262973   -0.878243   -0.139136   
-0.0291531   -0.860071   -0.146455   
-0.0320856   -0.840714   -0.1532   
-0.0350688   -0.820195   -0.15933   
-0.0380745   -0.798542   -0.164808   
-0.0410727   -0.775786   -0.169594   
-0.0440314   -0.75196   -0.17365   
-0.0469166   -0.727102   -0.176942   
-0.0496928   -0.701249   -0.179435   
-0.0523225   -0.674446   -0.181096   
-0.0547666   -0.646736   -0.181895   
-0.0569845   -0.618167   -0.181804   
-0.0589341   -0.58879   -0.180795   
-0.0605718   -0.558657   -0.178845   
-0.0618529   -0.527825   -0.175932   
-0.0627314   -0.49635   -0.172037   
-0.0631606   -0.464292   -0.167143   
-0.0630926   -0.431712   -0.161237   
-0.0624791   -0.398675   -0.154308   
-0.0612711   -0.365245   -0.146348   
-0.0594192   -0.33149   -0.137354   
-0.0568738   -0.297477   -0.127324   
-0.0535856   -0.263275   -0.116259   
-0.049505   -0.228955   -0.104166   
-0.0445831   -0.194587   -0.0910537   
-0.0387714   -0.160244   -0.0769337   
-0.0320222   -0.125995   -0.0618221   
-0.0242889   -0.0919137   -0.0457383   
-0.0155258   -0.0580712   -0.0287051   
-0.00568878   -0.0245385   -0.010749   
0.00526479   0.00861375   0.00810032   
0.0173757   0.0413158   0.0278096   
0.0306829   0.0734991   0.0483423   
0.045223   0.105096   0.0696586   
0.0610303   0.136042   0.0917152   
0.0781366   0.166271   0.114466   
0.0965708   0.195723   0.137862   
0.116359   0.224338   0.161851   
0.137524   0.252057   0.186379   
0.160087   0.278827   0.211387   
0.184062   0.304596   0.236817   
0.209464   0.329313   0.262606   
0.236301   0.352935   0.28869   
0.264578   0.375418   0.315005   
0.294298   0.396723   0.341482   
0.325459   0.416816   0.368052   
0.358053   0.435663   0.394646   
0.392071   0.453238   0.421194   
0.427498   0.469516   0.447623   
0.464315   0.484478   0.473861   
0.502501   0.498107   0.499837   
0.542029   0.510394   0.525477   
0.582871   0.521333   0.550709   
0.624989   0.530923   0.575461   
0.668345   0.539163   0.599664   
0.712896   0.546059   0.623247   
0.758594   0.55162   0.646144   
0.805389   0.555858   0.668289   
0.853225   0.558791   0.689616   
0.902047   0.560438   0.710064   
0.951791   0.560825   0.729572   
1.00239   0.559978   0.748084   
1.05379   0.557928   0.765543   
1.10591   0.55471   0.781899   
1.15868   0.550361   0.797101   
1.21202   0.544921   0.811103   
1.26587   0.538432   0.823863   
1.32013   0.530941   0.835342   
1.37473   0.522495   0.845503   
1.4296   0.513143   0.854315   
1.48464   0.502938   0.861748   
1.53977   0.491933   0.867778   
1.59492   0.480183   0.872384   
1.64999   0.467744   0.875549   
1.7049   0.454674   0.877259   
1.75956   0.441032   0.877504   
1.8139   0.426875   0.87628   
1.86783   0.412263   0.873585   
1.92126   0.397256   0.86942   
1.97412   0.381913   0.863792   
2.02632   0.366294   0.856709   
2.07779   0.350458   0.848185   
2.12845   0.334463   0.838237   
2.17823   0.318366   0.826885   
2.22704   0.302225   0.814151   
2.27482   0.286094   0.800063   
2.32151   0.270029   0.78465   
2.36703   0.254082   0.767945   
2.41133   0.238304   0.749982   
2.45433   0.222745   0.7308   
2.496   0.207453   0.71044   
2.53626   0.192473   0.688943   
2.57508   0.17785   0.666355   
2.61239   0.163626   0.642722   
2.64817   0.149839   0.618094   
2.68236   0.136527   0.59252   
2.71493   0.123725   0.566052   
2.74585   0.111465   0.538744   
2.77508   0.0997779   0.510649   
2.8026   0.0886909   0.481822   
2.82838   0.0782294   0.45232   
2.85241   0.0684159   0.422198   
2.87466   0.0592707   0.391513   
2.89513   0.0508116   0.360323   
2.91379   0.0430538   0.328685   
2.93066   0.0360103   0.296656   
2.94572   0.0296914   0.264292   
2.95896   0.0241054   0.231652   
2.97041   0.0192579   0.198789   
2.98006   0.0151528   0.165761   
2.98792   0.0117914   0.132622   
2.994   0.00917342   0.0994244   
2.99832   0.00729599   0.0662219   
3.00091   0.00615331   0.033066   
3.00177   0.00572632   1.51806e-05   
-0.0356629   -0.793585   -2.34189e-05   
-0.0357625   -0.792364   -0.00463884   
-0.0358363   -0.790306   -0.00920419   
-0.035879   -0.787405   -0.0136999   
-0.035886   -0.783658   -0.0181039   
-0.0358515   -0.779061   -0.0223944   
-0.0357688   -0.773614   -0.0265493   
-0.0356305   -0.767315   -0.0305464   
-0.0354282   -0.760166   -0.0343635   
-0.0351527   -0.752169   -0.0379784   
-0.0347939   -0.743326   -0.0413687   
-0.034341   -0.733643   -0.0445123   
-0.0337822   -0.723126   -0.0473868   
-0.0331048   -0.711781   -0.0499702   
-0.0322954   -0.699618   -0.0522404   
-0.0313396   -0.686648   -0.0541757   
-0.0302219   -0.672882   -0.0557544   
-0.0289262   -0.658333   -0.0569555   
-0.0274353   -0.643018   -0.057758   
-0.0257311   -0.626951   -0.0581416   
-0.0237947   -0.610152   -0.0580864   
-0.0216061   -0.59264   -0.057573   
-0.0191446   -0.574436   -0.0565829   
-0.0163885   -0.555564   -0.0550981   
-0.0133154   -0.536049   -0.0531015   
-0.00990184   -0.515916   -0.0505769   
-0.00612373   -0.495194   -0.0475091   
-0.00195612   -0.473913   -0.0438838   
0.00262666   -0.452103   -0.0396881   
0.00765099   -0.429797   -0.0349101   
0.0131439   -0.40703   -0.0295393   
0.0191329   -0.383838   -0.0235667   
0.0256463   -0.360258   -0.0169848   
0.0327127   -0.336329   -0.00978741   
0.040361   -0.312091   -0.0019704   
0.0486205   -0.287586   0.00646879   
0.0575209   -0.262857   0.0155308   
0.0670917   -0.237947   0.0252145   
0.0773626   -0.212902   0.0355164   
0.0883633   -0.187768   0.0464313   
0.100123   -0.162591   0.0579516   
0.112671   -0.137418   0.0700674   
0.126036   -0.1123   0.0827668   
0.140245   -0.087283   0.0960353   
0.155327   -0.0624173   0.109856   
0.171307   -0.0377519   0.12421   
0.18821   -0.013336   0.139075   
0.206061   0.0107812   0.154428   
0.224883   0.034551   0.170241   
0.244696   0.057925   0.186486   
0.265521   0.0808556   0.203131   
0.287374   0.103296   0.220142   
0.310271   0.1252   0.237483   
0.334226   0.146524   0.255115   
0.359249   0.167225   0.272997   
0.38535   0.18726   0.291087   
0.412533   0.206591   0.309338   
0.440802   0.22518   0.327706   
0.470156   0.242991   0.34614   
0.500592   0.259991   0.36459   
0.532104   0.27615   0.383004   
0.564681   0.29144   0.40133   
0.598312   0.305836   0.419512   
0.632975   0.319314   0.437495   
0.668665   0.331865   0.455229   
0.705313   0.343457   0.472637   
0.742844   0.354068   0.489643   
0.781234   0.363709   0.506203   
0.820436   0.372378   0.522262   
0.860407   0.380083   0.537774   
0.901101   0.386832   0.55269   
0.942468   0.392637   0.566964   
0.984457   0.397515   0.580554   
1.02701   0.401481   0.593417   
1.07009   0.404558   0.605516   
1.11361   0.406766   0.616814   
1.15754   0.408132   0.627278   
1.20181   0.408683   0.636875   
1.24635   0.408446   0.645578   
1.29111   0.407453   0.653362   
1.33604   0.405736   0.660202   
1.38105   0.403329   0.66608   
1.4261   0.400265   0.670978   
1.47113   0.396581   0.674882   
1.51606   0.392313   0.67778   
1.56084   0.387499   0.679663   
1.60541   0.382175   0.680524   
1.64971   0.376379   0.680361   
1.69368   0.37015   0.679172   
1.73727   0.363527   0.67696   
1.78041   0.356546   0.673727   
1.82304   0.349246   0.66948   
1.86513   0.341665   0.664229   
1.90661   0.333839   0.657983   
1.94743   0.325805   0.650755   
1.98754   0.317599   0.642561   
2.0269   0.309256   0.633418   
2.06546   0.300811   0.623343   
2.10318   0.292296   0.612357   
2.14001   0.283745   0.600482   
2.17592   0.275188   0.587741   
2.21086   0.266657   0.574158   
2.2448   0.25818   0.55976   
2.27772   0.249787   0.544572   
2.30956   0.241503   0.528624   
2.34031   0.233355   0.511944   
2.36994   0.225367   0.494562   
2.39843   0.217562   0.476508   
2.42574   0.209964   0.457813   
2.45186   0.202592   0.43851   
2.47676   0.195467   0.418631   
2.50044   0.188606   0.398207   
2.52287   0.182028   0.377273   
2.54404   0.175747   0.355861   
2.56394   0.169779   0.334005   
2.58256   0.164137   0.311738   
2.59988   0.158833   0.289094   
2.61591   0.153879   0.266107   
2.63064   0.149285   0.242809   
2.64407   0.145059   0.219236   
2.65619   0.141209   0.195419   
2.667   0.137742   0.171391   
2.67651   0.134663   0.147186   
2.68471   0.131978   0.122837   
2.69162   0.129689   0.0983745   
2.69724   0.127799   0.0738316   
2.70157   0.12631   0.0492398   
2.70463   0.125221   0.0246305   
2.70642   0.124533   3.19725e-05   
-0.0439515   -0.630826   -2.9528e-05   
-0.0438679   -0.629309   -6.24732e-05   
-0.04358   -0.627237   -1.70281e-05   
-0.0430808   -0.624611   0.000116141   
-0.0423633   -0.62143   0.000346402   
-0.0414203   -0.617694   0.000683087   
-0.0402444   -0.613405   0.00113557   
-0.038828   -0.608563   0.0017132   
-0.0371633   -0.603171   0.00242528   
-0.0352422   -0.597231   0.00328106   
-0.0330564   -0.590746   0.0042897   
-0.0305971   -0.583719   0.00546029   
-0.0278557   -0.576153   0.00680186   
-0.024823   -0.568054   0.00832333   
-0.0214897   -0.559427   0.0100336   
-0.0178461   -0.550276   0.0119413   
-0.0138826   -0.540609   0.0140551   
-0.00958887   -0.530431   0.0163836   
-0.00495467   -0.519751   0.0189351   
3.0669e-05   -0.508577   0.021718   
0.00537806   -0.496916   0.0247402   
0.0110987   -0.48478   0.0280097   
0.0172041   -0.472179   0.0315341   
0.023706   -0.459123   0.0353209   
0.0306165   -0.445625   0.0393773   
0.037948   -0.431698   0.0437102   
0.0457133   -0.417356   0.048326   
0.0539252   -0.402613   0.0532309   
0.0625971   -0.387486   0.0584307   
0.0717427   -0.37199   0.0639306   
0.0813757   -0.356145   0.0697353   
0.0915103   -0.339968   0.0758489   
0.102161   -0.32348   0.082275   
0.113342   -0.306701   0.0890163   
0.125069   -0.289653   0.0960749   
0.137356   -0.27236   0.103452   
0.150219   -0.254845   0.111148   
0.163674   -0.237134   0.119162   
0.177734   -0.219252   0.127492   
0.192416   -0.201227   0.136136   
0.207735   -0.183087   0.145089   
0.223706   -0.16486   0.154346   
0.240343   -0.146577   0.163901   
0.257663   -0.128268   0.173745   
0.275677   -0.109964   0.18387   
0.294402   -0.0916978   0.194263   
0.313848   -0.0735014   0.204912   
0.33403   -0.0554078   0.215804   
0.354958   -0.0374505   0.226921   
0.376644   -0.0196628   0.238247   
0.399096   -0.00207847   0.249762   
0.422323   0.015269   0.261445   
0.446332   0.0323461   0.273272   
0.471128   0.0491199   0.28522   
0.496715   0.0655577   0.297261   
0.523095   0.0816277   0.309367   
0.550269   0.0972989   0.321508   
0.578233   0.112541   0.333653   
0.606984   0.127325   0.345769   
0.636514   0.141624   0.357822   
0.666816   0.155411   0.369774   
0.697875   0.168662   0.381589   
0.72968   0.181356   0.39323   
0.762207   0.193468   0.404654   
0.795456   0.204991   0.415831   
0.829334   0.215887   0.426696   
0.863738   0.226122   0.437188   
0.898653   0.235708   0.447281   
0.934031   0.244644   0.456939   
0.969834   0.252934   0.466133   
1.00602   0.260584   0.474831   
1.04254   0.267604   0.483007   
1.07936   0.274003   0.490633   
1.11642   0.279794   0.497686   
1.15368   0.284991   0.504144   
1.1911   0.289608   0.509988   
1.22862   0.293664   0.515198   
1.26621   0.297177   0.519761   
1.30381   0.300165   0.523662   
1.34138   0.302648   0.52689   
1.37886   0.304648   0.529436   
1.41623   0.306185   0.531292   
1.45342   0.307283   0.532454   
1.4904   0.307962   0.532917   
1.52712   0.308247   0.532681   
1.56354   0.308159   0.531746   
1.59963   0.307721   0.530114   
1.63533   0.306956   0.527788   
1.67061   0.305886   0.524773   
1.70544   0.304534   0.521077   
1.73978   0.302921   0.516707   
1.77359   0.301069   0.511673   
1.80684   0.298998   0.505984   
1.83951   0.296731   0.499652   
1.87155   0.294285   0.49269   
1.90294   0.291682   0.485111   
1.93366   0.288939   0.476928   
1.96368   0.286076   0.468158   
1.99297   0.283109   0.458816   
2.02152   0.280056   0.448916   
2.0493   0.276933   0.438477   
2.07629   0.273756   0.427515   
2.10247   0.270539   0.416048   
2.12783   0.267298   0.404092   
2.15236   0.264046   0.391667   
2.17603   0.260795   0.378789   
2.19883   0.25756   0.365479   
2.22076   0.254352   0.351752   
2.24179   0.251182   0.33763   
2.26193   0.24806   0.323128   
2.28116   0.244999   0.308268   
2.29947   0.242007   0.293066   
2.31686   0.239093   0.277541   
2.33332   0.236267   0.261712   
2.34885   0.233537   0.245597   
2.36344   0.23091   0.229215   
2.37709   0.228395   0.212583   
2.38979   0.225999   0.195721   
2.40155   0.223728   0.178644   
2.41235   0.221589   0.161373   
2.42221   0.219587   0.143924   
2.43113   0.217729   0.126315   
2.43909   0.216018   0.108565   
2.4461   0.214461   0.090689   
2.45218   0.213062   0.0727062   
2.4573   0.211824   0.0546334   
2.46149   0.210752   0.0364874   
2.46474   0.20985   0.0182851   
2.46706   0.20912   4.32254e-05   
-0.0370464   -0.502309   -2.89835e-05   
-0.0367358   -0.500706   0.00331463   
-0.0360943   -0.498751   0.00674548   
-0.0351148   -0.496448   0.0102651   
-0.03379   -0.493799   0.0138753   
-0.0321126   -0.490806   0.0175775   
-0.0300752   -0.487472   0.0213728   
-0.0276706   -0.4838   0.0252622   
-0.0248917   -0.479793   0.0292466   
-0.0217317   -0.475451   0.0333266   
-0.0181837   -0.470779   0.0375026   
-0.014241   -0.465778   0.0417752   
-0.00989704   -0.460452   0.0461445   
-0.0051455   -0.454802   0.0506108   
1.99166e-05   -0.448831   0.0551742   
0.00560532   -0.442541   0.0598348   
0.0116167   -0.435936   0.0645927   
0.0180599   -0.429018   0.0694477   
0.0249406   -0.42179   0.0744   
0.0322644   -0.414255   0.0794495   
0.0400367   -0.406415   0.0845962   
0.048263   -0.398275   0.0898401   
0.0569485   -0.389838   0.0951812   
0.0660983   -0.381107   0.10062   
0.0757175   -0.372087   0.106155   
0.0858112   -0.362782   0.111788   
0.0963843   -0.353197   0.117518   
0.107442   -0.343338   0.123346   
0.118988   -0.333209   0.129272   
0.131029   -0.322817   0.135294   
0.143569   -0.312169   0.141414   
0.156612   -0.301272   0.147631   
0.170163   -0.290135   0.153945   
0.184228   -0.278765   0.160356   
0.198811   -0.267172   0.166862   
0.213917   -0.255367   0.173463   
0.229551   -0.243359   0.180157   
0.245717   -0.231161   0.186943   
0.262419   -0.218784   0.19382   
0.279663   -0.206243   0.200785   
0.297454   -0.193551   0.207834   
0.315794   -0.180723   0.214965   
0.334689   -0.167775   0.222174   
0.354143   -0.154724   0.229455   
0.374158   -0.141585   0.236804   
0.394739   -0.128379   0.244214   
0.415889   -0.115123   0.251678   
0.437609   -0.101837   0.259188   
0.459902   -0.0885417   0.266735   
0.48277   -0.0752569   0.274309   
0.506211   -0.0620043   0.281899   
0.530228   -0.0488053   0.289492   
0.554817   -0.035682   0.297075   
0.579977   -0.0226565   0.304635   
0.605705   -0.00975103   0.312154   
0.631995   0.00301217   0.319617   
0.658843   0.015611   0.327004   
0.686239   0.0280236   0.334298   
0.714176   0.0402285   0.341477   
0.742641   0.0522048   0.34852   
0.771623   0.0639323   0.355405   
0.801106   0.0753914   0.362108   
0.831075   0.0865645   0.368606   
0.861505   0.0974312   0.374871   
0.892397   0.107987   0.380886   
0.923643   0.118187   0.386607   
0.95513   0.127998   0.391992   
0.986845   0.137427   0.397032   
1.01875   0.14647   0.401706   
1.0508   0.155129   0.405998   
1.08297   0.163407   0.409893   
1.11522   0.171306   0.413376   
1.14751   0.178833   0.416438   
1.1798   0.185993   0.419065   
1.21206   0.192793   0.42125   
1.24426   0.199241   0.422986   
1.27635   0.205347   0.424265   
1.3083   0.211119   0.425085   
1.34007   0.216567   0.425441   
1.37165   0.221702   0.425333   
1.40298   0.226534   0.424761   
1.43404   0.231074   0.423724   
1.4648   0.235333   0.422227   
1.49523   0.239322   0.420271   
1.5253   0.243051   0.417862   
1.55499   0.246533   0.415005   
1.58426   0.249776   0.411706   
1.6131   0.252792   0.407973   
1.64148   0.255591   0.403813   
1.66939   0.258183   0.399235   
1.69679   0.260577   0.394247   
1.72368   0.262782   0.38886   
1.75003   0.264807   0.383083   
1.77584   0.266661   0.376926   
1.80107   0.268351   0.3704   
1.82572   0.269886   0.363515   
1.84978   0.271273   0.356282   
1.87324   0.272518   0.348712   
1.89608   0.273628   0.340815   
1.9183   0.274611   0.332604   
1.93988   0.27547   0.324087   
1.96083   0.276213   0.315276   
1.98112   0.276845   0.306181   
2.00077   0.277371   0.296813   
2.01975   0.277796   0.287182   
2.03807   0.278125   0.277297   
2.05572   0.278362   0.267168   
2.0727   0.278513   0.256806   
2.089   0.278581   0.246219   
2.10463   0.278571   0.235415   
2.11958   0.278488   0.224406   
2.13385   0.278335   0.213198   
2.14743   0.278117   0.2018   
2.16033   0.277837   0.190221   
2.17254   0.277501   0.178468   
2.18407   0.277113   0.16655   
2.19491   0.276676   0.154475   
2.20506   0.276196   0.142249   
2.21452   0.275677   0.129882   
2.2233   0.275122   0.11738   
2.23138   0.274538   0.104751   
2.23878   0.273928   0.092002   
2.24548   0.273297   0.0791411   
2.25149   0.27265   0.0661755   
2.25682   0.271992   0.0531128   
2.26145   0.271328   0.0399606   
2.26539   0.270662   0.0267267   
2.26864   0.27   0.013419   
2.2712   0.269346   4.51778e-05   
-0.0196977   -0.40005   -2.42773e-05   
-0.0191547   -0.398477   0.00581982   
-0.0181907   -0.396703   0.0117496   
-0.016798   -0.394733   0.017761   
-0.0149696   -0.39257   0.0238504   
-0.0126986   -0.390218   0.0300134   
-0.00997861   -0.38768   0.0362457   
-0.00680329   -0.384959   0.0425426   
-0.00316679   -0.382058   0.0488992   
0.000936465   -0.378979   0.0553104   
0.00551171   -0.375725   0.0617709   
0.0105638   -0.372296   0.0682754   
0.0160973   -0.368696   0.0748182   
0.0221164   -0.364924   0.0813938   
0.0286247   -0.360982   0.0879964   
0.0356258   -0.356871   0.0946204   
0.0431226   -0.35259   0.10126   
0.0511178   -0.34814   0.10791   
0.0596136   -0.343521   0.114563   
0.068612   -0.338732   0.121216   
0.0781144   -0.333772   0.127861   
0.0881222   -0.328642   0.134494   
0.098636   -0.32334   0.141109   
0.109656   -0.317864   0.147702   
0.121184   -0.312215   0.154267   
0.133217   -0.30639   0.160799   
0.145757   -0.300389   0.167294   
0.158802   -0.294211   0.173747   
0.172352   -0.287855   0.180155   
0.186404   -0.281319   0.186513   
0.200958   -0.274603   0.192817   
0.216012   -0.267707   0.199064   
0.231563   -0.260631   0.20525   
0.247609   -0.253375   0.211372   
0.264148   -0.245939   0.217426   
0.281178   -0.238324   0.223411   
0.298694   -0.230532   0.229323   
0.316695   -0.222565   0.235159   
0.335177   -0.214425   0.240917   
0.354136   -0.206116   0.246594   
0.37357   -0.197641   0.252187   
0.393473   -0.189005   0.257693   
0.413842   -0.180212   0.26311   
0.434673   -0.171269   0.268435   
0.455961   -0.162182   0.273664   
0.477702   -0.152958   0.278795   
0.499889   -0.143606   0.283822   
0.522518   -0.134133   0.288744   
0.545582   -0.12455   0.293554   
0.569075   -0.114867   0.298248   
0.59299   -0.105094   0.302821   
0.61732   -0.0952434   0.307267   
0.642056   -0.0853263   0.31158   
0.667189   -0.0753558   0.315752   