<?xml version="1.0"?> 
<VTKFile type="UnstructuredGrid" version="0.1"> 
<UnstructuredGrid> 
<Piece NumberOfPoints="1280" NumberOfCells="720"> 
<PointData Vectors="fields">
<DataArray type="Float32" Name="stress" format="ascii" NumberOfComponents="3"> 
26244.3 -6248.67 -2743.73 27426.6 -7432.19 -2942.48 26589 -6593.85 -2801.78 27055.4 -7061.19 -2880.22 26473.3 -6476.92 -202.028 27671.7 -7677.16 -216.596 26822.7 -6826.86 -206.306 27295.4 -7300.81 -212.082 26354.7 -6360.34 -1971.43 27544.7 -7552.28 -2114.45 26701.8 -6707.81 -2013.17 27171.3 -7178.47 -2069.61 26444.7 -6450.22 -966.972 27640.9 -7648.99 -1037.36 26793.6 -6799.54 -987.486 27265.6 -7272.9 -1015.27 -577.599 20566.4 -11079.6 -2137.27 22128.3 -12718.2 -1021.43 21003.6 -11541.6 -1637.99 21618.1 -12187.9 9126.8 10879 -15286.8 8994.26 11006.8 -17548.8 9092.25 10916.2 -15921.7 9038.52 10965.1 -16813.9 1970.95 18025.3 -13043.1 785.264 19209.6 -14974.1 1635.45 18357.5 -13586.7 1166.46 18823.2 -14348.4 5875.43 14129.2 -14747.6 5263.59 14736.9 -16931 5704.96 14300.8 -15361.1 5462.28 14539 -16222.3 897.496 19106.6 -9544.84 -351.645 20344 -10844.7 548.423 19458.3 -9910.94 54.5974 19945.4 -10423.6 9243.35 10756.5 -13171.2 9142.33 10858.6 -14964.9 9213.64 10784.8 -13678.8 9172.77 10824.1 -14386.3 3088.23 16914.8 -11236 2140.92 17855.6 -12767 2822.34 17182 -11667.8 2447.57 17552.2 -12271.7 6445.1 13556.5 -12705.3 5960.42 14040.7 -14436.4 6307.69 13693.5 -13194.6 6115.42 13883.5 -13877.5 -12243.4 32117.2 -23240 -17184.6 37107.4 -28495.3 -13615.2 33452.1 -24677.2 -15570.5 35407.1 -26748.9 8190.89 11866.3 -32056.8 7714.53 12345.9 -39250.9 8079.72 11995.7 -34005.4 7881.09 12174.3 -36839.2 -6921.33 26755.8 -27391.7 -10827.2 30323 -33573.9 -7981.39 27729.5 -29080.6 -9527.72 29126.5 -31518.1 1315.19 18625.3 -30953.7 -799.037 20424.6 -37894.4 764.814 19124.7 -32842.6 -76.3936 19825.4 -35578.2 -7937.83 27930.5 -18769.8 -11559.2 31453.7 -22525 -8913.21 28909.8 -19789.8 -10346.9 30291.5 -21269.5 8521.03 11480.5 -25931.3 8231.35 11794.6 -31091.7 8435.88 11561.6 -27352.2 8315.82 11680.3 -29386.3 -3631.91 23615.7 -22118 -6401.57 26264.4 -26552.1 -4380.62 24358.9 -23327.1 -5478.24 25398 -25074.7 2995.79 16998.9 -25020.8 1573.6 18367.4 -30016.3 2605.96 17381 -26392.3 2039.55 17916.2 -28361.5 22067.8 -2065.01 -2037.96 22818.3 -2816.77 -2164.65 22287.7 -2285.43 -2075.13 22583.9 -2582.27 -2125.13 22238 -2234.65 -150.378 22999 -2997.33 -159.846 22461 -2458.16 -153.169 22761.3 -2759.32 -156.919 22150.6 -2147.92 -1464.01 22906 -2905.14 -1555.05 22372 -2369.83 -1490.7 22670.1 -2668.83 -1526.63 22217.5 -2214.52 -718.06 22977 -2976.21 -762.859 22440.2 -2437.64 -731.179 22739.9 -2738.4 -748.862 45239.6 -25231.7 -5953.54 49187.3 -29183.2 -6548.04 46358.5 -26358.1 -6135.81 47911.5 -27919.1 -6372.5 45732.9 -25721.3 -432.001 49546.5 -29799.1 -621.686 46853.9 -26864.3 -457.483 48364.9 -28473 -524.482 45466.3 -25466.2 -4289.69 49431.5 -29319.7 -4664.24 46591.8 -26581 -4413.92 48152.8 -28103.2 -4563.78 45661.5 -25652.7 -2108.32 49591.7 -29478.1 -2319.83 46790.6 -26761.9 -2170.67 48342 -28272.3 -2252.29 10705.4 9295.96 -12213.5 10748.3 9250.31 -12975.4 10717.8 9282.32 -12436.9 10734.6 9264.21 -12737.7 18440.6 1559.14 -8856.23 18967.1 1035.07 -9407.43 18594.8 1405.23 -9017.94 18802.6 1198.27 -9235.51 13299 6700.92 -11779.9 13504.4 6494.59 -12514.1 13359 6640.1 -11995.2 13440 6558.56 -12285.1 16409.7 3589.7 -10419.8 16809.9 3191.69 -11068.3 16526.7 3472.6 -10610.1 16684.6 3315.4 -10866.1 10658.5 9343.05 -11410.8 10698.9 9303.07 -12096.9 10670.9 9331.88 -11611.8 10686.8 9316.01 -11882.6 17886.4 2113.32 -8273.78 18360.2 1639.46 -8771.81 18025.4 1974.41 -8419.93 18212.4 1787.28 -8616.52 13081.9 6918.17 -11005.6 13267.7 6732.68 -11667.4 13136.9 6864.27 -11199.6 13210.1 6790.97 -11460.8 15988.7 4010.81 -9734.69 16348.6 3650.87 -10320.4 16094.5 3905.51 -9906.46 16236.5 3763.35 -10137.7 10954.5 9049.74 -16447.2 11020.3 8979.59 -17646.7 10973.3 9028.63 -16797.2 10999.1 9000.74 -17270.6 21365.3 -1361.4 -11926.2 22194.8 -2187.66 -12793.1 21606.8 -1602.83 -12179.3 21934 -1929.17 -12521.5 14446.1 5556.61 -15861.1 14768.8 5233.33 -17016.4 14539.6 5461.48 -16198.2 14666.8 5333.68 -16654.3 18632.4 1371.58 -14029.5 19263.3 744.838 -15049.5 18815.7 1187.92 -14327.3 19064.4 940.332 -14729.9 10881.6 9121.74 -15203.3 10944.6 9060.75 -16265.1 10901.4 9104.98 -15512.6 10926 9080.74 -15931.7 20506.4 -501.626 -11023.6 21239.6 -1235.87 -11794.5 20720.5 -715.614 -11248.7 21009.7 -1005.59 -11553 14110.1 5893.05 -14662 14397.4 5606.17 -15685.6 14194.9 5810.28 -14960.3 14308.2 5696.87 -15364.4 17980.7 2024.87 -12968.4 18537.2 1467.19 -13874.5 18143.5 1862.77 -13232.8 18363 1642.48 -13590.4 33039.9 -13049.9 -3886.35 35058.1 -15064.1 -4224.64 33623.9 -13633.5 -3984.24 34419.9 -14428.9 -4117.7 33366.1 -13371 -285.551 35416.5 -15418 -310.06 33959.2 -13963.4 -292.881 34767.9 -14771.8 -302.666 33192.4 -13207.3 -2793.79 35222.3 -15238.3 -3038.61 33780.2 -13795.1 -2864.5 34580.8 -14597.2 -2961.05 33320.5 -13334.2 -1371.03 35362.5 -15379.9 -1492.2 33911.8 -13925.7 -1406.03 34717.2 -14733.5 -1453.85 11364.6 8648.56 -23334 11478.8 8522.46 -25385.5 11396.6 8610.58 -23928.4 11441.2 8560.31 -24738 26123 -6112.22 -16919.3 27541.5 -7516.7 -18397.3 26532.7 -6520.2 -17347.9 27092.1 -7075.01 -17931.2 16320.5 3697.19 -22497.8 16875.8 3140.97 -24469.9 16479.7 3534.3 -23069.5 16698.3 3314.29 -23847.7 22255 -2234.04 -19898.6 23337.2 -3299.86 -21636.3 22566.4 -2544.82 -20402.7 22993 -2965.96 -21088.5 11239.9 8773.42 -21253.7 11347.8 8668.26 -23026.4 11274.3 8745.56 -21766 11316.5 8703.65 -22465.7 24687.5 -4677.73 -15410.5 25910.9 -5901.06 -16697.2 25042.3 -5031.87 -15783.8 25524.7 -5515.07 -16291.6 15755.8 4262.58 -20493.9 16238.2 3781.66 -22201.8 15897.9 4125.59 -20988 16087.8 3935.38 -21662 21163.9 -1143.47 -18126.1 22094.1 -2072.91 -19637.4 21434.3 -1411.49 -18564.1 21801 -1778.7 -19160.6 12129.3 8047.36 -35655.9 12377.5 7935.78 -39593.2 12194.1 8005.9 -36784.1 12290.2 7960.18 -38337.5 34621.2 -14730.2 -25834.2 37303.7 -17545.1 -28618.3 35391.3 -15538.5 -26636.9 36449.2 -16650.3 -27735.8 19770.4 477.524 -34379 20956 -462.084 -38191.3 20098.4 197.046 -35470.4 20564.1 -175.59 -36974.3 28814.8 -8723.14 -30397.8 30986.8 -10805.2 -33733.3 29427.7 -9326.35 -31355.4 30283.2 -10149.5 -32671.4 11887.9 8201.59 -31793.3 12096.6 8070.52 -35076 11955.4 8167.14 -32731.6 12036.3 8114.07 -34026.8 31965.3 -11976.4 -23045.3 34224.4 -14315.2 -25420.1 32614.8 -12640.8 -23729.5 33505.5 -13564.5 -24666.8 18665.7 1456.8 -30645 19604.1 623.969 -33818.3 18937 1221.4 -31552.1 19305.6 891.274 -32804 26740.3 -6662.15 -27099.3 28501.7 -8412.28 -29904.9 27244.6 -7157.51 -27904.2 27938.2 -7849.37 -29011.2 23923.3 -3923.87 -2351.55 24857.1 -4859.77 -2509.54 24196.3 -4197.57 -2397.78 24564.7 -4567.12 -2460.13 24120.7 -4120.05 -173.192 25067.5 -5068.8 -184.96 24397.6 -4397.43 -176.599 24771.2 -4772.06 -181.267 24018 -4019.92 -1689.48 24957.9 -4962.03 -1802.99 24292.7 -4295.31 -1722.68 24663.6 -4667.32 -1767.48 24095.5 -4097.17 -828.735 25040.6 -5044.29 -884.375 24371.8 -4373.93 -844.987 24744.7 -4747.91 -866.951 20552.4 -549.351 -9380.16 21259.9 -1257.65 -10010.9 20759.3 -756.449 -9564.52 21038.4 -1036.17 -9813.5 23046 -3049.58 -5402.16 23921.6 -3926.83 -5764.45 23302.1 -3305.81 -5508.08 23647.6 -3652.22 -5651.08 21456 -1456.68 -8251.97 22224.4 -2226.11 -8806.72 21680.7 -1681.48 -8414.08 21983.8 -1985.33 -8633.05 22442.1 -2446.46 -6673.35 23277 -3282.82 -7121.43 22686.2 -2690.69 -6804.3 23015.6 -3020.97 -6981.16 19811.1 191.244 -8720.49 20444.6 -441.591 -9284.13 19996.7 6.27573 -8885.37 20246.6 -243.633 -9107.86 22129.3 -2130.8 -5022.04 22912.4 -2916.29 -5347 22358.4 -2360.99 -5117.34 22667.4 -2671.16 -5245.6 20651.6 -651.569 -7671.32 21338.9 -1339.74 -8167.54 20852.9 -853.026 -7816.61 21124 -1124.78 -8012.48 21568.4 -1570.59 -6203.59 22314.7 -2319.43 -6605.15 21786.8 -1790.08 -6321.31 22081.3 -2085.78 -6479.82 22311.8 -2309.37 -10947.4 23209.4 -3205.38 -11743.8 22573.4 -2570.83 -11179.8 22927.5 -2924.7 -11494.1 25221.6 -5228.8 -6302.51 26328.5 -6340.39 -6762.65 25544.6 -5552.32 -6436.43 25981.2 -5991.28 -6618.06 23366.8 -3368.3 -9630.61 24339.9 -4342.73 -10332.4 23650.8 -3652.18 -9835.2 24034.7 -4037 -10112.2 24517.6 -4524.12 -7787.11 25573.2 -5584.21 -8355.74 24825.8 -4832.58 -7952.67 25242.2 -5251.2 -8177.1 21380.8 -1378.18 -10118.6 22175.6 -2173.53 -10826.5 21612.8 -1610.18 -10325.3 21926.4 -1924.27 -10604.8 24071 -4076.42 -5826.23 25053.5 -5060.93 -6232.96 24357.9 -4364.01 -5944.96 24745.5 -4752.78 -6105.5 22355.6 -2357.21 -8901.4 23219 -3220.93 -9524.23 22607.7 -2609.38 -9083.31 22948.3 -2950.45 -9329.15 23419.5 -3425.46 -7197.89 24357.1 -4364.1 -7701.11 23693.3 -3699.68 -7344.82 24063.2 -4070.34 -7543.45 20561.2 -554.216 -1782.84 21172.9 -1167.97 -1886.45 20740.8 -734.493 -1813.26 20982.2 -976.836 -1854.16 20710.5 -702.699 -131.562 21330.8 -1325.11 -139.181 20892.7 -885.519 -133.778 21137.4 -1131.28 -136.794 20633.3 -627.053 -1280.8 21249.4 -1244.85 -1355.22 20814.3 -808.469 -1302.66 21057.4 -1052.41 -1332.04 20692 -685.49 -628.228 21311.5 -1306.6 -664.728 20874 -867.85 -638.954 21118.4 -1113.09 -653.363 18000.7 1999.42 -7109.94 18465.1 1534.73 -7523.72 18137.1 1862.92 -7231.47 18320.4 1679.41 -7394.8 19894.8 109.635 -4093.44 20468.1 -464.898 -4331.74 20063.2 -58.9789 -4163.45 20289.4 -285.838 -4257.52 18687.3 1313.37 -6253.88 19191.3 808.901 -6617.92 18835.4 1165.27 -6360.81 19034.2 966.067 -6504.51 19436.4 565.65 -5056.65 19983.5 17.7955 -5351.05 19597.1 404.886 -5143.14 19813 188.556 -5259.35 17507.1 2492.06 -6670.95 17929.3 2070.69 -7046.45 17631.4 2368.35 -6781.31 17798 2201.95 -6929.54 19287.3 719.151 -3839.93 19806.8 197.638 -4056.85 19439.9 565.76 -3903.8 19644.9 359.839 -3989.43 18152.1 1848.35 -5867.13 18609.9 1390.67 -6198.01 18286.8 1713.83 -5964.47 18467.4 1533.11 -6095.09 18856.3 1146.83 -4743.34 19352.4 649.545 -5011.45 19002.1 1000.55 -4822.3 19197.8 804.19 -4928.13 19144.2 855.855 -8128.4 19714.1 287.496 -8634.57 19311.2 689.117 -8276.84 19536.1 464.669 -8476.63 21306.9 -1305.02 -4679.88 22009.8 -2010.81 -4972.29 21513 -1511.56 -4765.49 21790.3 -1790.25 -4880.92 19928.6 71.6721 -7149.83 20546.6 -546.633 -7595.58 20109.8 -109.463 -7280.46 20353.7 -353.626 -7456.4 20784 -783.22 -5781.12 21454.5 -1456.17 -6142.16 20980.7 -980.13 -5886.83 21245.3 -1245.86 -6029.34 18543.7 1456.19 -7593.78 19057 942.824 -8050.92 18694.3 1305.63 -7727.95 18896.9 1102.9 -7908.4 20565.3 -562.164 -4372.07 21199.3 -1197.43 -4635.25 20751.3 -748.572 -4449.29 21001.5 -999.417 -4553.17 19276.7 723.558 -6679.55 19834 166.075 -7081.67 19440.2 559.985 -6797.57 19660.1 339.848 -6956.31 20076.3 -74.9608 -5400.87 20681.3 -680.664 -5726 20253.8 -252.716 -5496.29 20492.5 -491.889 -5624.63 38162.9 -18162.5 -4750.83 40915.2 -20911.1 -5220.81 38954.6 -18954.4 -4885.9 40039.7 -20040 -5071.28 38575.3 -18564.2 -342.523 41370.9 -21352.6 -374.804 39381.1 -19366.9 -351.747 40483.8 -20468 -364.681 38342.9 -18360.3 -3422.27 41112.9 -21128.6 -3763.3 39139.5 -19157.1 -3520.54 40231.5 -20250.5 -3655.03 38504.1 -18522.1 -1680.89 41291.2 -21306.1 -1848.22 39306.3 -19322.7 -1729.29 40405.3 -20422.2 -1795.35 31339.1 -11342.6 -18985.3 33403.3 -13450.3 -20839.4 31934.4 -11948.6 -19519.3 32748.2 -12781.2 -20251 36382 -16446.1 -10926.6 38948.7 -19016.6 -11988 37122.5 -17186 -11231.9 38134.6 -18201.2 -11650.8 33150 -13197.6 -16712.5 35386.8 -15476.5 -18342.5 33795.4 -13852.4 -17182 34677.4 -14752.5 -17825.3 35141.9 -15224 -13516.3 37578.1 -17683.1 -14831.6 35844.9 -15931 -13895.1 36805.4 -16902.3 -14414.2 29259.6 -9248.97 -17128.4 31031.2 -11031.1 -18709.8 29772.8 -9760.74 -17584.3 30471.2 -10464.6 -18208.5 33804.8 -13856.8 -9860.63 35999.1 -16065.2 -10769.3 34437.9 -14496.9 -10123.9 35303.3 -15369 -10482.5 30899.1 -10923 -15075.7 32816.1 -12861.1 -16470.3 31453.5 -11482.1 -15478.6 32209.3 -12247.5 -16029 32694.8 -12752.3 -12192.6 34778.3 -14860.2 -13320.9 33296.3 -13363.2 -12519.4 34117.9 -14195.7 -12964.7 36613 -16785.9 -23717 39443.9 -19816.1 -26255 37431.8 -17654.7 -24449.9 38548.7 -18851.3 -25451.8 42956.3 -22985.7 -13669.8 46571.9 -26512.9 -15257.9 43991.2 -23998 -14114.5 45415.9 -25391.7 -14740.4 38854.8 -19048.6 -20874.8 41886.7 -22257 -23117.5 39735 -19969.9 -21521.1 40931.5 -21236.7 -22406.4 41363.6 -21489.7 -16892.7 44710 -24860.2 -18768.1 42330.3 -22459.8 -17426.8 43650.1 -23791.1 -18166.6 33764.3 -13817.9 -21163 36189.4 -16340 -23338.6 34463.3 -14536.7 -21790.6 35419.9 -15532.6 -22649.4 39397.2 -19464.3 -12173.7 42423.2 -22466.3 -13444 40266.2 -20332.2 -12535.8 41458.9 -21518 -13036.9 35777.7 -15874.3 -18627 38398.4 -18575.1 -20541.6 36534.2 -16648.9 -19178.9 37568.1 -17715.2 -19934.9 38003.6 -18112 -15061.3 40863.6 -20990.6 -16619.3 38827.6 -18943.4 -15508.2 39955.6 -20080.2 -16123.2 29198.6 -9206.85 -3240.86 30724.6 -10735.6 -3497.69 29641.9 -9651.33 -3315.58 30243.9 -10255 -3416.93 29470.5 -9475.18 -237.524 31018.2 -11023.7 -257.047 29920.4 -9925.16 -243.125 30530.9 -10536.6 -250.894 29326.8 -9338.53 -2329.21 30862.1 -10877.1 -2513.67 29772.8 -9785.54 -2382.86 30378.5 -10393.1 -2455.64 29433.6 -9444.23 -1142.61 30977.5 -10990.4 -1233.16 29882.3 -9893.18 -1168.91 30491.3 -10503.7 -1204.65 24552.2 -4548.47 -12938.4 25706.7 -5706.5 -13969.6 24887.7 -4885.13 -13237.9 25343 -5342.52 -13644.8 27990.1 -8005.72 -7451.13 29421.1 -9440.83 -8042.21 28406.2 -8422.01 -7622.85 28970.7 -8988.73 -7856.16 25795.6 -5802.89 -11384.3 27049 -7061.53 -12291.1 26159.9 -6168.29 -11647.6 26654.2 -6665.39 -12005.4 27154.8 -7172.27 -9207.12 28517.6 -8540.84 -9938.99 27550.9 -7569.16 -9419.64 28088.5 -8109.64 -9708.48 23363.4 -3358.33 -11880.1 24377.9 -4374.04 -12783.1 23659.2 -3653.5 -12142.6 24059.3 -4054.64 -12499.1 26518.3 -6530.93 -6841.65 27773.9 -7790.22 -7362.06 26883.5 -6897.91 -6993.5 27378.9 -7395.2 -7198.89 24506.6 -4509.48 -10452.6 25606.4 -5613.7 -11247.8 24826.9 -4830.93 -10684.1 25260.6 -5267.01 -10998 25753.9 -5765.97 -8453.33 26948.9 -6966.86 -9096.9 26101.6 -6116.02 -8641.02 26573 -6590.26 -8895.04 27461 -7460.11 -15533.5 28993.4 -8985.97 -16893.1 27904.4 -7902.44 -15927.4 28508.8 -8505.15 -16464 31590.2 -11618.9 -8938.99 33477.5 -13525.8 -9724.26 32137.1 -12169.2 -9165.81 32881.4 -12922.2 -9475.76 28953.5 -8969.15 -13667.6 30611.8 -10634.8 -14867.6 29434.2 -9450.68 -14014.8 30088.2 -10108.5 -14488.4 30585.9 -10617.6 -11050.7 32383.6 -12436.5 -12023.6 31107.4 -11142.3 -11331.7 31816.4 -11860.6 -11715.6 25906 -5905.23 -14147.3 27231.3 -7231.42 -15329.5 26290.2 -6289.53 -14490.3 26812.9 -6813.32 -14956.9 29667.8 -9688.05 -8144 31306.6 -11335.1 -8821.82 30143.2 -10165.8 -8340.5 30789.6 -10816.2 -8608.01 27265.4 -7278 -12447.4 28704.3 -8720.58 -13487.9 27682.6 -7696.36 -12749.2 28250.1 -8266.08 -13159.9 28752.7 -8776.64 -10065.2 30315.4 -10347 -10905.4 29205.9 -9232.24 -10308.8 29822.3 -9852.42 -10640.4 2073.05 17924.2 -8311.64 1073.14 18926 -9358.73 1786.96 18207.9 -8609.84 1391.82 18602.4 -9022.97 9342.2 10661 -11464.7 9258.06 10741.5 -12912.5 9319.37 10684.5 -11875.4 9285.47 10715.5 -12446.6 3982.67 16017.5 -9782.68 3222.19 16777.4 -11016.3 3765.88 16232.7 -10133.5 3465.19 16531.8 -10620.2 6906.29 13096.8 -11059.9 6514.39 13485.9 -12456 6795.57 13207.5 -11456.2 6640.27 13360.2 -12007 3037.24 16961.5 -7301 2219.38 17779 -8159.04 2806.65 17195.3 -7545.17 2483.43 17517.4 -7883.69 9420.93 10580.4 -10071 9352.98 10648.1 -11255 9401.05 10599.8 -10409 9373.72 10626 -10876.1 4714.15 15287.5 -8593.03 4093.18 15907.2 -9603.3 4538.64 15464.7 -8880.88 4293.09 15708.7 -9279.45 7281.83 12721.5 -9715.31 6962.15 13039.7 -10857.4 7190.78 12812.3 -10041.1 7064.1 12937.3 -10491.7 -1468.66 21460.7 -565.719 -2914.57 22909.1 -636.814 -1882.62 21871.3 -585.678 -2453.77 22441.9 -613.665 1205.07 18790.7 -7387.45 97.1464 19902.3 -8317.79 887.647 19105.6 -7652.53 449.893 19543.5 -8019.61 -1159.82 21153.1 -2713.55 -2561.7 22563.6 -3055.67 -1562.17 21552.9 -2810.74 -2115.94 22108.7 -2945.7 -106.09 20100.5 -5458.53 -1376.17 21377.9 -6145.9 -470.607 20462.5 -5654.36 -972.345 20965.8 -5925.57 -81.9379 20060.3 -498.415 -1256.71 21250.5 -555.552 -411.539 20401.9 -514.77 -875.579 20870.9 -537.266 2275.34 17721.8 -6489.63 1367.63 18629.6 -7251.77 2019.47 17981.5 -6706.32 1660.82 18339.2 -7007.01 197.081 19793.2 -2386.9 -953.425 20948.6 -2663.88 -127.053 20124.1 -2465.28 -581.504 20579.4 -2574.55 1124.72 18870.6 -4796.8 80.8675 19915.3 -5358.3 830.345 19169.5 -4956.13 417.993 19581.2 -5177.67 -5300.68 25286.5 -758.607 -7542.46 27552.2 -872.725 -5941.15 25921.9 -791.203 -6826.76 26814.2 -836.276 -1733.86 21720.6 -9846.43 -3463.33 23454.4 -11300.9 -2226.8 22205.6 -10256.8 -2910.36 22887.9 -10830.5 -4877.12 24873.6 -3619.41 -7063.33 27077.2 -4150.36 -5501.09 25490.8 -3769.9 -6364.81 26358.5 -3979.35 -3475.9 23466.6 -7275.17 -5460.33 25460.9 -8346.42 -4042.12 24024.4 -7577.89 -4826.27 24809.5 -8000.44 -3168.71 23169.4 -649.823 -4973.31 24963.6 -741.94 -3672.92 23678 -675.626 -4385.78 24384.8 -712.008 -97.2456 20102.5 -8483.01 -1482.57 21474.1 -9637.72 -483.774 20492.3 -8808.11 -1031.31 21032.3 -9263.55 -2807.29 22817 -3116.72 -4558.48 24560.1 -3542.65 -3295.39 23311.6 -3236.81 -3987.21 23998.1 -3404.83 -1598.64 21607.4 -6268 -3186.94 23183.3 -7121.05 -2041.13 22055 -6508.2 -2668.72 22675.6 -6844.67 -4816.06 24786.8 -15508 -7461.82 27431.8 -18263.5 -5560.14 25515.6 -16276 -6606.43 26554.9 -17362.7 8783.29 11230 -21393.4 8560.94 11438.1 -25220.2 8727.37 11290.5 -22451 8636.13 11368.9 -23959.6 -1248.2 21226.4 -18259.3 -3266.5 23235.4 -21516.7 -1811.55 21780.1 -19164.1 -2610.47 22568.4 -20448.6 4225.44 15775 -20642.9 3185.75 16802.7 -24335.9 3940.72 16060.3 -21664.9 3527.49 16461.7 -23120.9 -2413.33 22415.5 -13013.9 -4440.84 24419.1 -15120.6 -2969.73 22978.3 -13600.3 -3771.62 23766.3 -14431 8970.41 11031.4 -17959.4 8806.78 11195.8 -20862.8 8921.61 11076.8 -18771.4 8854.7 11139.3 -19916.2 574.262 19427.2 -15323.2 -966.104 20946.1 -17803.9 149.338 19853.3 -16014.8 -460.588 20450 -16992.8 5153.62 14848.8 -17326.8 4364.93 15628.6 -20129.7 4932.55 15066.7 -18109.8 4619.01 15371.9 -19215 -11424.1 31378.6 -1071.08 -15268.8 35192.2 -1301.15 -12510 32428.3 -1131.17 -14029.4 33928.1 -1221.37 -6431.07 26406.1 -13778.5 -9353.28 29338.8 -16221 -7255.09 27214.7 -14460.5 -8410.37 28367.6 -15423.7 -10811.8 30818.4 -5061.21 -14474.5 34543 -5979.48 -11849.7 31845.2 -5315.91 -13297.2 33310.2 -5677.82 -8857.08 28855.2 -10174.5 -12178.7 32226.5 -11978.4 -9797.25 29785.4 -10678.7 -11110.1 31111.3 -11390.1 -7938.27 27966 -892.857 -10874.3 30850.4 -1041.81 -8738.38 28777 -933.01 -9898.6 29911.7 -991.373 -3768.96 23773.2 -11563.2 -6014.56 25998.3 -13434.3 -4384.72 24398.4 -12083.5 -5272.52 25273.7 -12821.4 -7449.57 27480.8 -4245.53 -10285 30301.6 -4933.08 -8226.95 28272.9 -4435.18 -9347.43 29382.8 -4706.17 -5810.78 25827.2 -8539.25 -8380.39 28386.6 -9919.86 -6515.86 26546.1 -8922.4 -7531.4 27553.2 -9466.84 -22327.5 41921.7 -1783.99 -29754.4 48534.3 -2380.43 -24390.3 43763.4 -1937.06 -27324.1 46368 -2170.67 -14624.3 34578.3 -20616.1 -19995 40320.4 -25251.2 -16128.8 36098.4 -21884.2 -18254.4 38347.6 -23711 -21098.6 41222.1 -7582.13 -27874.6 48345.7 -9205.91 -23002 43137.7 -8028.77 -25681.4 45934.9 -8667.79 -18151.9 38310.1 -15175.9 -24172.2 45092.5 -18494.5 -19851.2 40098.3 -16086.9 -22233.6 42756.1 -17394.3 -15958.5 35910.5 -1347.89 -21295.2 40990.8 -1710.33 -17377.5 37330.8 -1443.16 -19485.5 39332.6 -1585.04 -9877.72 29890.5 -16668.5 -13869.4 33828.4 -19984.7 -10952.2 30977.4 -17569.7 -12532.1 32521.1 -18876.2 -15128.4 35242.7 -6149.33 -20140.3 40271.7 -7357.97 -16469.8 36629.4 -6485.33 -18451.3 38605.2 -6961.09 -12772.5 32859.2 -12308.3 -17294.7 37431.8 -14720.6 -13988.5 34112.4 -12968.8 -15777.7 35905.2 -13919 10812.4 9183.49 -14097.1 10870.8 9130.01 -15042.5 10828.6 9167.08 -14374.1 10851.6 9145.83 -14747.2 19741.8 263.172 -10219.4 20394.8 -390.512 -10906.4 19932.7 71.9016 -10420.2 20190.3 -186.263 -10691.4 13807.6 6190.61 -13595.1 14065.5 5935.68 -14506.8 13882.5 6115.33 -13862.1 13984.2 6014.57 -14222 17399.2 2605.1 -12023.5 17895.7 2108.88 -12830.9 17544.2 2459.55 -12259.8 17740.1 2263.54 -12578.5 10755.9 9242.93 -13104.7 10804.1 9192.19 -13952.7 10770.2 9228.4 -13352.8 10789.1 9208.26 -13687.6 19056.8 946.467 -9500.94 19642.2 362.731 -10114.7 19228.5 776.055 -9680.43 19459.4 545.527 -9922.71 13539.7 6459.98 -12638.7 13768.7 6229.96 -13455.9 13607 6393.13 -12877.7 13697.3 6302.21 -13200.3 16878.3 3124.6 -11178.3 17323.6 2680.95 -11900.4 17009.1 2995.37 -11389.4 17184.7 2820.13 -11674.5 10614.4 9383.82 -10685.7 10651.7 9348.64 -11306 10624.9 9373.17 -10868.1 10639.6 9359.22 -11113 17384.9 2614.68 -7746.72 17813.7 2185.74 -8197.47 17510.9 2488.61 -7879.12 17680.1 2319.22 -8057.04 12884 7113.03 -10305.9 13053 6946.08 -10904.5 12933.4 7063.7 -10481.9 13000 6997.73 -10718.2 15607.1 4391.08 -9115.08 15933.3 4065.62 -9645.04 15702.9 4295.28 -9270.8 15831.6 4166.74 -9480 10577.1 9421.9 -10026.4 10609 9389.42 -10590.3 10586.6 9412.61 -10192.1 10599.1 9399.73 -10414.7 16928.8 3069.37 -7268.81 17319 2680.52 -7677.55 17043.7 2955.29 -7388.89 17197.7 2801.74 -7550.23 12705.8 7290.54 -9670.14 12858.3 7138.84 -10213.9 12750.8 7246.26 -9829.86 12810.9 7186.32 -10044.5 15260.2 4736.17 -8553.05 15557.1 4441.15 -9033.7 15347.7 4649.78 -8694.19 15464.8 4533.26 -8883.92 11661.1 8342.54 -28537.7 11849.6 8217.35 -31311.6 11710.3 8300.77 -29339.8 11783.9 8250.56 -30434.4 29716.3 -9690.22 -20672.6 31630.2 -11637.5 -22692.6 30267.9 -10250.9 -21254.4 31022.3 -11020.2 -22051.6 17739.7 2294.56 -27502 18524.1 1575.7 -30179.2 17961.7 2081.4 -28275.2 18270.4 1796.81 -29331.7 25004.8 -4947.35 -24311.2 26480.2 -6410.5 -26685.2 25428.3 -5371.72 -24995.5 26009.8 -5950.04 -25932.3 11500.3 8502.7 -25740.5 11636.7 8365.41 -28123 11540.4 8463.37 -26428 11593.6 8408.53 -27368.2 27788.7 -7758.04 -18652.8 29431.2 -9401.88 -20372.6 28264.9 -8228.67 -19148.2 28912.4 -8878.01 -19826.9 16974.3 3047 -24810.9 17625.9 2405.82 -27102.6 17163.3 2863.21 -25471.5 17419.9 2609.45 -26375.9 23527 -3481.85 -21936.4 24786.2 -4728.32 -23958.1 23892.5 -3837.69 -22518.4 24388.7 -4330.29 -23316.2 11121.9 8873.82 -19444.8 11220.7 8786.69 -20988.7 11148.6 8846.98 -19894.6 11187.3 8812.28 -20503.9 23436.9 -3426.47 -14093.9 24503.4 -4494.73 -15217 23746.8 -3737.39 -14420.2 24167.4 -4159.34 -14863.5 15256.1 4748.1 -18749.1 15681.2 4332.46 -20238.3 15378.4 4625.85 -19182.8 15545.9 4461.5 -19770.6 20210.2 -195.284 -16580 21023.2 -1005.39 -17899.3 20446.1 -431.786 -16963.7 20766.8 -751.835 -17484.5 11032.2 8968.44 -17851.9 11108.4 8887.99 -19211.2 11054.6 8946 -18247.3 11084.4 8913.99 -18783.7 22337.5 -2328.41 -12941.4 23275.9 -3265.29 -13924.7 22611.3 -2600.28 -13227.1 22981.4 -2970.3 -13615.2 14825 5179.01 -17214 15192.9 4811.75 -18523.9 14932.5 5073.32 -17594.9 15077.5 4928.11 -18111.8 19372.3 638.594 -15223.8 20087.6 -72.5007 -16380.8 19581.3 432.896 -15559.9 19863.4 151.988 -16016.6 25016.6 -5019.08 -2536.46 26064.9 -6069.32 -2713.51 25322.7 -5325.56 -2588.18 25736.3 -5740.26 -2658.07 25229.2 -5230.37 -186.951 26291.5 -6295.14 -199.818 25539.4 -5541.14 -190.731 25958.6 -5961.59 -195.794 25118.4 -5122.51 -1822.35 26174.1 -6179.86 -1949.7 25426.7 -5431.16 -1859.55 25843.2 -5848.67 -1909.83 25202 -5205.7 -893.871 26263.1 -6268.81 -956.309 25511.8 -5516.11 -912.111 25930.5 -5935.89 -936.756 24291.2 -4294.97 -5266.46 25288.7 -5294.93 -5633.8 24582.5 -4587.01 -5373.69 24976.1 -4981.87 -5518.68 24948.5 -4949.78 -2917.23 25991.8 -5995.29 -3120.69 25253.2 -5254.84 -2976.66 25664.8 -5667.69 -3056.98 24533.2 -4534.9 -4559.98 25547.3 -5551.71 -4877.8 24829.4 -4831.75 -4652.77 25229.5 -5233.27 -4778.21 24792.6 -4793.02 -3631.44 25824.8 -5827.78 -3884.52 25094.1 -5094.98 -3705.35 25501.3 -5503.58 -3805.24 25459.4 -5465.48 -5696.62 26583.9 -6594.02 -6112.08 25787.3 -5794.08 -5817.57 26230.9 -6239.73 -5981.57 26170.3 -6173.85 -3155.44 27347.4 -7351.94 -3384 26513.4 -6517.5 -3222.19 26977.8 -6982.7 -3312.4 25720.8 -5725.23 -4932.15 26864.7 -6872.03 -5291.1 26054.3 -6059.4 -5036.73 26505.5 -6512.26 -5178.43 26001.4 -6004.47 -3927.76 27166.1 -7170.65 -4212.73 26340.8 -6344.57 -4010.91 26800.3 -6805.08 -4123.4 21276.6 -1271.75 -1904 21953 -1950.05 -2018.55 21475.1 -1470.69 -1937.62 21742 -1738.52 -1982.84 21435.9 -1430.36 -140.475 22121.6 -2118.11 -148.93 21637.1 -1632.1 -142.948 21907.7 -1903.66 -146.281 21353.8 -1349.36 -1367.82 22035 -2032.21 -1450.07 21553.7 -1549.67 -1391.96 21822.5 -1819.29 -1424.43 21416.4 -1411.69 -670.901 22101.2 -2098.21 -711.219 21617.4 -1613.1 -682.726 21887.6 -1884.18 -698.641 20730.4 -726.202 -3952.39 21374 -1371.47 -4190.31 20919.2 -915.521 -4022.2 21173.2 -1170.31 -4116.11 21224.9 -1219.62 -2189.93 21898 -1894.84 -2321.71 21422.4 -1417.64 -2228.6 21688 -1684.26 -2280.62 20911.9 -906.762 -3422.64 21566.3 -1563.04 -3628.66 21103.9 -1099.28 -3483.09 21362.1 -1358.42 -3564.41 21107 -1101.43 -2726.05 21773 -1769.54 -2890.12 21302.4 -1297.38 -2774.19 21565.2 -1561.19 -2838.96 21483.3 -1480.76 -4230.66 22197.2 -2197.33 -4494.92 21692.6 -1690.54 -4308.05 21974.3 -1973.49 -4412.36 22012.3 -2009.28 -2344.04 22759.4 -2757.51 -2489.82 22231.2 -2228.69 -2386.82 22526 -2524.14 -2444.36 21677.4 -1674.23 -3663.6 22403.5 -2402.42 -3892.21 21890.2 -1887.55 -3730.59 22176.7 -2175.09 -3820.84 21886.1 -1882.77 -2917.94 22625.3 -2623.34 -3099.67 22102.7 -2099.89 -2971.24 22394.4 -2392.32 -3042.98 41398.4 -21389.4 -5303.28 44664.7 -24656.3 -5857.6 42336.1 -22323.1 -5463.33 43623.9 -23613.3 -5682.27 41859.4 -21838.6 -380.138 45152.9 -25142 -421.99 42805.5 -22785.8 -390.484 44103.5 -24090.6 -406.374 41599.5 -21611 -3822.96 44888.3 -24891 -4221.81 42544 -22550.9 -3938.73 43841.2 -23846.1 -4096.5 41779.7 -21791.8 -1877.22 45080.8 -25079 -2074.06 42727.6 -22736.5 -1933.66 44029.4 -24034.7 -2011.38 39877.3 -19913.8 -10990.9 42963.5 -22968.1 -12142.1 40762.3 -20795.5 -11318.2 41978.3 -22002.2 -11772.1 41266.5 -21244.7 -6087.7 44517.1 -24496.4 -6725.2 42199.1 -22173.8 -6270.8 43480.4 -23458.1 -6522.34 40401.8 -20402.2 -9504.31 43552.1 -23525.3 -10502.6 41304.3 -21300.7 -9787.88 42545.3 -22534.6 -10181.3 40950.8 -20924.4 -7566.01 44165.1 -24129.9 -8360.52 41872 -21842.1 -7792.56 43138.5 -23108.4 -8105.72 43509.1 -23497.6 -12347.8 47232.7 -27113.5 -13813.8 44570.3 -24532 -12755 46036.9 -25961 -13332.2 45090.5 -25069.2 -6837 49027.2 -29039.2 -7574.74 46206.5 -26194.8 -7053.31 47755.3 -27763.3 -7345.61 44110.1 -24069.5 -10681.6 47936.5 -27825.1 -11965.8 45197.1 -25137.3 -11036.7 46703.4 -26621.6 -11542.2 44733.9 -24692.8 -8502.07 48639.5 -28612.6 -9496.29 45841.6 -25801.2 -8781.12 47378.4 -27350.1 -9173.18 30987.9 -10998.1 -3541.87 32737.3 -12748.1 -3835.67 31495.5 -11505.5 -3627.13 32185.5 -12196.5 -3743.1 31285.1 -11289.8 -260.348 33058.9 -13064.8 -281.784 31799.6 -11804.3 -266.599 32499.2 -12505.2 -275.01 31127 -11141.5 -2545.44 32887.8 -12903.6 -2757.2 31637.8 -11652.5 -2606.81 32332.4 -12348.4 -2690.39 31243.8 -11256.4 -1248.76 33014.1 -13028.7 -1352.94 31757.2 -11770.4 -1278.89 32455.5 -12470.3 -1319.99 29978.4 -9993.02 -7359.23 31643.2 -11665 -7970.55 30461.4 -10477.9 -7536.5 31118 -11138.2 -7777.77 30895.4 -10902 -4073.03 32637.1 -12644.3 -4410.42 31400.8 -11407 -4170.98 32087.8 -12095.1 -4304.15 30318.9 -10326.8 -6369.44 32012.2 -12025.1 -6897.41 30810.2 -10819.2 -6522.62 31478.1 -11489.9 -6730.99 30680.8 -10684.8 -5070.45 32404.6 -12410.5 -5490.16 31181 -11185 -5192.3 31860.9 -11866.5 -5357.95 31931.3 -11953.1 -8076.19 33850.3 -13886.8 -8783.55 32487 -12511.6 -8280.64 33243.8 -13275.2 -8559.87 32938.4 -12944.8 -4468.6 34949 -14949.6 -4856.57 33520 -13525.8 -4580.97 34312.9 -14317.6 -4734.08 32305.2 -12317.9 -6988.58 34259.4 -14278.1 -7597.99 32870.6 -12884.8 -7164.92 33641.3 -13658.9 -7405.5 32702.8 -12708.1 -5562.55 34693.5 -14695.1 -6045.44 33278.5 -13283.7 -5702.45 34063.6 -14068.4 -5893.07 22945.9 -2944.24 -2186.14 23781.1 -3781.38 -2327.45 23190.5 -3189.07 -2227.43 23520 -3519.63 -2283.22 23128.4 -3126.73 -161.414 23976.2 -3975.68 -171.451 23376.7 -3375.17 -164.368 23711.2 -3710.38 -168.306 23034.4 -3033.64 -1570.53 23874.7 -3876.59 -1672.17 23280.5 -3280.33 -1600.25 23612 -3613.19 -1640.38 23106.1 -3105.54 -770.479 23951.4 -3953.17 -820.277 23353.6 -3353.74 -785.08 23687.1 -3688.44 -804.735 22318.7 -2319.09 -4539.84 23114.5 -3116.69 -4833.43 22551.5 -2552.73 -4625.92 22865.6 -2867.67 -4741.8 22886.5 -2884.37 -2514.54 23718.4 -3717.66 -2676.95 23130.1 -3128.03 -2562.01 23458.4 -3457.06 -2626.12 22527.1 -2526.03 -3931.04 23336.7 -3336.75 -4185.03 22764 -2763.34 -4005.46 23083.5 -3083.46 -4105.71 22751.2 -2748.93 -3130.49 23575 -3573.65 -3332.62 22992.4 -2990.13 -3189.63 23317.5 -3315.78 -3269.4 23250.2 -3252.12 -4883.29 24139.5 -4143.1 -5210.65 23510.3 -3512.43 -4979.01 23861.2 -3864.25 -5108.23 23860.1 -3859.52 -2704.65 24789.7 -4791.21 -2886.29 24131.9 -4132.02 -2757.8 24498.7 -4499.91 -2829.49 23474.6 -3474.57 -4228.22 24378.9 -4380.56 -4511.68 23739.1 -3739.38 -4311.13 24095.9 -4097.13 -4423.02 23715.3 -3714.02 -3367.05 24635.5 -4636.07 -3592.97 23984.4 -3983.67 -3433.15 24347.5 -4347.76 -3522.32 19911.6 96.6408 -1673.33 20467.3 -460.079 -1766.95 20075.1 -66.8708 -1700.76 20294.4 -286.695 -1737.72 20053.2 -42.7371 -123.4 20615.3 -607.232 -130.418 20218.2 -208.548 -125.565 20440.1 -431.427 -128.311 19979 28.4315 -1201.71 20538.7 -532.335 -1269.37 20143.7 -136.385 -1221.6 20364.6 -357.81 -1248.32 20034.7 -26.3089 -588.966 20596.9 -590.285 -622.621 20200 -192.146 -598.967 20421.8 -414.833 -612.246 19433 575.314 -3471.66 19960.3 45.6156 -3667.48 19587.8 419.559 -3529.28 19795.9 210.408 -3606.58 19866.7 142.486 -1924.71 20419.4 -411.626 -2032.27 20029.3 -20.2328 -1956.22 20247.4 -239.025 -1998.68 19592.8 417.015 -3006.92 20129 -121.643 -3175.99 19750.3 258.711 -3056.6 19961.9 46.0251 -3123.33 19763.9 246.278 -2395.61 20310.1 -301.988 -2529.71 19924.5 85.2555 -2434.93 20140 -131.225 -2487.86 20049.6 -43.8086 -3700.54 20631.7 -627.423 -3915.94 20220.6 -215.122 -3763.82 20450.3 -445.565 -3848.85 20512.8 -505.349 -2050.55 21121.7 -1116.32 -2169.74 20691.6 -684.825 -2085.54 20931.9 -926.069 -2132.59 20219.8 -212.655 -3204.6 20811.6 -806.326 -3391.07 20393.6 -386.