<VTKFile type="UnstructuredGrid"  version="0.1"   > 
<UnstructuredGrid> 
<Piece  NumberOfPoints="  4" NumberOfCells=" 1"> 
<Points> 
<DataArray  type="Float64"  NumberOfComponents="3"  format="ascii" > 
0.300000 0.000000 0.0 
0.500000 0.000000 0.0 
0.000000 0.300000 0.0 
0.000000 0.500000 0.0 
</DataArray> 
</Points> 
<Cells> 
<DataArray  type="Int32"  Name="connectivity"  format="ascii"> 
0 1 3 2 
</DataArray> 
<DataArray  type="Int32"  Name="offsets"  format="ascii"> 
4 
</DataArray> 
<DataArray  type="UInt8"  Name="types"  format="ascii"> 
9 
</DataArray> 
</Cells> 
<PointData  Vectors="sigma"> 
<DataArray  type="Float64"  Name="sigma" NumberOfComponents="3" format="ascii"> 
-966101   -3.8644e+06   3.34748e+06   
-6.58424e+06   -2.6337e+07   1.40072e+06   
1.94512e+07   4.8628e+06   1.42457e+07   
-3.43977e+07   -8.59943e+06   1.44112e+07   
</DataArray> 
<DataArray  type="Float64"  Name="U" NumberOfComponents="3" format="ascii"> 
1.000000000000   0.392370383160   0.0
1.000000000000   1.011979942181   0.0
0.000000000000   0.000000000000   0.0
-0.000000000000   0.000000000000   0.0
</DataArray> 
</PointData> 
</Piece> 
</UnstructuredGrid> 
</VTKFile> 
