<VTKFile type="UnstructuredGrid"  version="0.1"   > 
<UnstructuredGrid> 
<Piece  NumberOfPoints="  4" NumberOfCells=" 1"> 
<Points> 
<DataArray  type="Float64"  NumberOfComponents="3"  format="ascii" > 
0.300000 0.000000 0.0 
0.500000 0.000000 0.0 
0.000000 0.300000 0.0 
0.000000 0.500000 0.0 
</DataArray> 
</Points> 
<Cells> 
<DataArray  type="Int32"  Name="connectivity"  format="ascii"> 
0 1 3 2 
</DataArray> 
<DataArray  type="Int32"  Name="offsets"  format="ascii"> 
4 
</DataArray> 
<DataArray  type="UInt8"  Name="types"  format="ascii"> 
9 
</DataArray> 
</Cells> 
<PointData  Vectors="sigma"> 
<DataArray  type="Float64"  Name="sigma" NumberOfComponents="3" format="ascii"> 
-34142.3   54842.4   -4766.37   
3782.11   32647.8   -1211   
54842.4   -34142.3   -4766.37   
32647.8   3782.11   -1211   
</DataArray> 
<DataArray  type="Float64"  Name="U" NumberOfComponents="3" format="ascii"> 
0.000752939525   0.000000000000   0.0
0.000578830195   0.000000000000   0.0
0.000000000000   0.000752939525   0.0
0.000000000000   0.000578830195   0.0
</DataArray> 
</PointData> 
</Piece> 
</UnstructuredGrid> 
</VTKFile> 
