<VTKFile type="UnstructuredGrid"  version="0.1"   > 
<UnstructuredGrid> 
<Piece  NumberOfPoints="  85" NumberOfCells=" 64"> 
<Points> 
<DataArray  type="Float64"  NumberOfComponents="3"  format="ascii" > 
2.000000 0.0000000.000000 
1.859577 0.7361890.000000 
1.414214 1.4142140.000000 
0.736189 1.8595770.000000 
0.000000 2.0000000.000000 
-0.736189 1.8595770.000000 
-1.414214 1.4142140.000000 
-1.859577 0.7361890.000000 
-2.000000 0.0000000.000000 
-1.859577 -0.7361890.000000 
-1.414214 -1.4142140.000000 
-0.736189 -1.8595770.000000 
0.000000 -2.0000000.000000 
0.736189 -1.8595770.000000 
1.414214 -1.4142140.000000 
1.859577 -0.7361890.000000 
2.000000 0.0000000.000000 
1.750000 0.0000000.000000 
1.627130 0.6441660.000000 
1.237437 1.2374370.000000 
0.644166 1.6271300.000000 
0.000000 1.7500000.000000 
-0.644166 1.6271300.000000 
-1.237437 1.2374370.000000 
-1.627130 0.6441660.000000 
-1.750000 0.0000000.000000 
-1.627130 -0.6441660.000000 
-1.237437 -1.2374370.000000 
-0.644166 -1.6271300.000000 
0.000000 -1.7500000.000000 
0.644166 -1.6271300.000000 
1.237437 -1.2374370.000000 
1.627130 -0.6441660.000000 
1.750000 0.0000000.000000 
1.500000 0.0000000.000000 
1.394682 0.5521420.000000 
1.060660 1.0606600.000000 
0.552142 1.3946820.000000 
0.000000 1.5000000.000000 
-0.552142 1.3946820.000000 
-1.060660 1.0606600.000000 
-1.394682 0.5521420.000000 
-1.500000 0.0000000.000000 
-1.394682 -0.5521420.000000 
-1.060660 -1.0606600.000000 
-0.552142 -1.3946820.000000 
0.000000 -1.5000000.000000 
0.552142 -1.3946820.000000 
1.060660 -1.0606600.000000 
1.394682 -0.5521420.000000 
1.500000 0.0000000.000000 
1.250000 0.0000000.000000 
1.162235 0.4601180.000000 
0.883883 0.8838830.000000 
0.460118 1.1622350.000000 
0.000000 1.2500000.000000 
-0.460118 1.1622350.000000 
-0.883883 0.8838830.000000 
-1.162235 0.4601180.000000 
-1.250000 0.0000000.000000 
-1.162235 -0.4601180.000000 
-0.883883 -0.8838830.000000 
-0.460118 -1.1622350.000000 
0.000000 -1.2500000.000000 
0.460118 -1.1622350.000000 
0.883883 -0.8838830.000000 
1.162235 -0.4601180.000000 
1.250000 0.0000000.000000 
1.000000 0.0000000.000000 
0.929788 0.3680950.000000 
0.707107 0.7071070.000000 
0.368095 0.9297880.000000 
0.000000 1.0000000.000000 
-0.368095 0.9297880.000000 
-0.707107 0.7071070.000000 
-0.929788 0.3680950.000000 
-1.000000 0.0000000.000000 
-0.929788 -0.3680950.000000 
-0.707107 -0.7071070.000000 
-0.368095 -0.9297880.000000 
0.000000 -1.0000000.000000 
0.368095 -0.9297880.000000 
0.707107 -0.7071070.000000 
0.929788 -0.3680950.000000 
1.000000 0.0000000.000000 
</DataArray> 
</Points> 
<Cells> 
<DataArray  type="Int32"  Name="connectivity"  format="ascii"> 
0 1 18 17 
1 2 19 18 
2 3 20 19 
3 4 21 20 
4 5 22 21 
5 6 23 22 
6 7 24 23 
7 8 25 24 
8 9 26 25 
9 10 27 26 
10 11 28 27 
11 12 29 28 
12 13 30 29 
13 14 31 30 
14 15 32 31 
15 16 33 32 
17 18 35 34 
18 19 36 35 
19 20 37 36 
20 21 38 37 
21 22 39 38 
22 23 40 39 
23 24 41 40 
24 25 42 41 
25 26 43 42 
26 27 44 43 
27 28 45 44 
28 29 46 45 
29 30 47 46 
30 31 48 47 
31 32 49 48 
32 33 50 49 
34 35 52 51 
35 36 53 52 
36 37 54 53 
37 38 55 54 
38 39 56 55 
39 40 57 56 
40 41 58 57 
41 42 59 58 
42 43 60 59 
43 44 61 60 
44 45 62 61 
45 46 63 62 
46 47 64 63 
47 48 65 64 
48 49 66 65 
49 50 67 66 
51 52 69 68 
52 53 70 69 
53 54 71 70 
54 55 72 71 
55 56 73 72 
56 57 74 73 
57 58 75 74 
58 59 76 75 
59 60 77 76 
60 61 78 77 
61 62 79 78 
62 63 80 79 
63 64 81 80 
64 65 82 81 
65 66 83 82 
66 67 84 83 
</DataArray> 
<DataArray  type="Int32"  Name="offsets"  format="ascii"> 
4 
8 
12 
16 
20 
24 
28 
32 
36 
40 
44 
48 
52 
56 
60 
64 
68 
72 
76 
80 
84 
88 
92 
96 
100 
104 
108 
112 
116 
120 
124 
128 
132 
136 
140 
144 
148 
152 
156 
160 
164 
168 
172 
176 
180 
184 
188 
192 
196 
200 
204 
208 
212 
216 
220 
224 
228 
232 
236 
240 
244 
248 
252 
256 
</DataArray> 
<DataArray  type="UInt8"  Name="types"  format="ascii"> 
9 
9 
9 
9 
9 
9 
9 
9 
9 
9 
9 
9 
9 
9 
9 
9 
9 
9 
9 
9 
9 
9 
9 
9 
9 
9 
9 
9 
9 
9 
9 
9 
9 
9 
9 
9 
9 
9 
9 
9 
9 
9 
9 
9 
9 
9 
9 
9 
9 
9 
9 
9 
9 
9 
9 
9 
9 
9 
9 
9 
9 
9 
9 
9 
</DataArray> 
</Cells> 
<PointData  Vectors="sigma"> 
<DataArray  type="Float64"  Name="U" NumberOfComponents="3" format="ascii"> 
-6.115770   -6.115770   -6.115770   
-7.356400   -7.356400   -7.356400   
-7.666761   -7.666761   -7.666761   
-7.356400   -7.356400   -7.356400   
-6.115770   -6.115770   -6.115770   
-7.356400   -7.356400   -7.356400   
-7.666761   -7.666761   -7.666761   
-7.356400   -7.356400   -7.356400   
-6.115770   -6.115770   -6.115770   
-7.356400   -7.356400   -7.356400   
-7.666761   -7.666761   -7.666761   
-7.356400   -7.356400   -7.356400   
-6.115770   -6.115770   -6.115770   
-7.356400   -7.356400   -7.356400   
-7.666761   -7.666761   -7.666761   
-7.356400   -7.356400   -7.356400   
-6.115770   -6.115770   -6.115770   
-4.561814   -4.561814   -4.561814   
-5.613900   -5.613900   -5.613900   
-5.877726   -5.877726   -5.877726   
-5.613900   -5.613900   -5.613900   
-4.561814   -4.561814   -4.561814   
-5.613900   -5.613900   -5.613900   
-5.877726   -5.877726   -5.877726   
-5.613900   -5.613900   -5.613900   
-4.561814   -4.561814   -4.561814   
-5.613900   -5.613900   -5.613900   
-5.877726   -5.877726   -5.877726   
-5.613900   -5.613900   -5.613900   
-4.561814   -4.561814   -4.561814   
-5.613900   -5.613900   -5.613900   
-5.877726   -5.877726   -5.877726   
-5.613900   -5.613900   -5.613900   
-4.561814   -4.561814   -4.561814   
-3.017643   -3.017643   -3.017643   
-3.818201   -3.818201   -3.818201   
-4.015941   -4.015941   -4.015941   
-3.818201   -3.818201   -3.818201   
-3.017643   -3.017643   -3.017643   
-3.818201   -3.818201   -3.818201   
-4.015941   -4.015941   -4.015941   
-3.818201   -3.818201   -3.818201   
-3.017643   -3.017643   -3.017643   
-3.818201   -3.818201   -3.818201   
-4.015941   -4.015941   -4.015941   
-3.818201   -3.818201   -3.818201   
-3.017643   -3.017643   -3.017643   
-3.818201   -3.818201   -3.818201   
-4.015941   -4.015941   -4.015941   
-3.818201   -3.818201   -3.818201   
-3.017643   -3.017643   -3.017643   
-1.491388   -1.491388   -1.491388   
-1.954167   -1.954167   -1.954167   
-2.064638   -2.064638   -2.064638   
-1.954167   -1.954167   -1.954167   
-1.491388   -1.491388   -1.491388   
-1.954167   -1.954167   -1.954167   
-2.064638   -2.064638   -2.064638   
-1.954167   -1.954167   -1.954167   
-1.491388   -1.491388   -1.491388   
-1.954167   -1.954167   -1.954167   
-2.064638   -2.064638   -2.064638   
-1.954167   -1.954167   -1.954167   
-1.491388   -1.491388   -1.491388   
-1.954167   -1.954167   -1.954167   
-2.064638   -2.064638   -2.064638   
-1.954167   -1.954167   -1.954167   
-1.491388   -1.491388   -1.491388   
-0.000000   -0.000000   -0.000000   
-0.000000   -0.000000   -0.000000   
-0.000000   -0.000000   -0.000000   
-0.000000   -0.000000   -0.000000   
-0.000000   -0.000000   -0.000000   
-0.000000   -0.000000   -0.000000   
-0.000000   -0.000000   -0.000000   
-0.000000   -0.000000   -0.000000   
-0.000000   -0.000000   -0.000000   
-0.000000   -0.000000   -0.000000   
-0.000000   -0.000000   -0.000000   
-0.000000   -0.000000   -0.000000   
-0.000000   -0.000000   -0.000000   
-0.000000   -0.000000   -0.000000   
-0.000000   -0.000000   -0.000000   
-0.000000   -0.000000   -0.000000   
-0.000000   -0.000000   -0.000000   
</DataArray> 
</PointData> 
</Piece> 
</UnstructuredGrid> 
</VTKFile> 
