<VTKFile type="UnstructuredGrid"  version="0.1"   > 
<UnstructuredGrid> 
<Piece  NumberOfPoints="  16641" NumberOfCells=" 16384"> 
<Points> 
<DataArray  type="Float64"  NumberOfComponents="3"  format="ascii" > 
0.300000 0.000000 0.0 
0.301562 0.000000 0.0 
0.303125 0.000000 0.0 
0.304688 0.000000 0.0 
0.306250 0.000000 0.0 
0.307813 0.000000 0.0 
0.309375 0.000000 0.0 
0.310937 0.000000 0.0 
0.312500 0.000000 0.0 
0.314063 0.000000 0.0 
0.315625 0.000000 0.0 
0.317187 0.000000 0.0 
0.318750 0.000000 0.0 
0.320312 0.000000 0.0 
0.321875 0.000000 0.0 
0.323437 0.000000 0.0 
0.325000 0.000000 0.0 
0.326562 0.000000 0.0 
0.328125 0.000000 0.0 
0.329687 0.000000 0.0 
0.331250 0.000000 0.0 
0.332812 0.000000 0.0 
0.334375 0.000000 0.0 
0.335938 0.000000 0.0 
0.337500 0.000000 0.0 
0.339062 0.000000 0.0 
0.340625 0.000000 0.0 
0.342187 0.000000 0.0 
0.343750 0.000000 0.0 
0.345313 0.000000 0.0 
0.346875 0.000000 0.0 
0.348437 0.000000 0.0 
0.350000 0.000000 0.0 
0.351562 0.000000 0.0 
0.353125 0.000000 0.0 
0.354687 0.000000 0.0 
0.356250 0.000000 0.0 
0.357812 0.000000 0.0 
0.359375 0.000000 0.0 
0.360938 0.000000 0.0 
0.362500 0.000000 0.0 
0.364062 0.000000 0.0 
0.365625 0.000000 0.0 
0.367188 0.000000 0.0 
0.368750 0.000000 0.0 
0.370313 0.000000 0.0 
0.371875 0.000000 0.0 
0.373437 0.000000 0.0 
0.375000 0.000000 0.0 
0.376563 0.000000 0.0 
0.378125 0.000000 0.0 
0.379687 0.000000 0.0 
0.381250 0.000000 0.0 
0.382812 0.000000 0.0 
0.384375 0.000000 0.0 
0.385938 0.000000 0.0 
0.387500 0.000000 0.0 
0.389062 0.000000 0.0 
0.390625 0.000000 0.0 
0.392188 0.000000 0.0 
0.393750 0.000000 0.0 
0.395313 0.000000 0.0 
0.396875 0.000000 0.0 
0.398438 0.000000 0.0 
0.400000 0.000000 0.0 
0.401563 0.000000 0.0 
0.403125 0.000000 0.0 
0.404687 0.000000 0.0 
0.406250 0.000000 0.0 
0.407813 0.000000 0.0 
0.409375 0.000000 0.0 
0.410938 0.000000 0.0 
0.412500 0.000000 0.0 
0.414062 0.000000 0.0 
0.415625 0.000000 0.0 
0.417188 0.000000 0.0 
0.418750 0.000000 0.0 
0.420313 0.000000 0.0 
0.421875 0.000000 0.0 
0.423438 0.000000 0.0 
0.425000 0.000000 0.0 
0.426563 0.000000 0.0 
0.428125 0.000000 0.0 
0.429688 0.000000 0.0 
0.431250 0.000000 0.0 
0.432813 0.000000 0.0 
0.434375 0.000000 0.0 
0.435937 0.000000 0.0 
0.437500 0.000000 0.0 
0.439063 0.000000 0.0 
0.440625 0.000000 0.0 
0.442187 0.000000 0.0 
0.443750 0.000000 0.0 
0.445312 0.000000 0.0 
0.446875 0.000000 0.0 
0.448438 0.000000 0.0 
0.450000 0.000000 0.0 
0.451562 0.000000 0.0 
0.453125 0.000000 0.0 
0.454688 0.000000 0.0 
0.456250 0.000000 0.0 
0.457813 0.000000 0.0 
0.459375 0.000000 0.0 
0.460938 0.000000 0.0 
0.462500 0.000000 0.0 
0.464063 0.000000 0.0 
0.465625 0.000000 0.0 
0.467187 0.000000 0.0 
0.468750 0.000000 0.0 
0.470313 0.000000 0.0 
0.471875 0.000000 0.0 
0.473437 0.000000 0.0 
0.475000 0.000000 0.0 
0.476562 0.000000 0.0 
0.478125 0.000000 0.0 
0.479687 0.000000 0.0 
0.481250 0.000000 0.0 
0.482812 0.000000 0.0 
0.484375 0.000000 0.0 
0.485938 0.000000 0.0 
0.487500 0.000000 0.0 
0.489062 0.000000 0.0 
0.490625 0.000000 0.0 
0.492188 0.000000 0.0 
0.493750 0.000000 0.0 
0.495313 0.000000 0.0 
0.496875 0.000000 0.0 
0.498437 0.000000 0.0 
0.500000 0.000000 0.0 
0.299982 0.003322 0.0 
0.301544 0.003339 0.0 
0.303106 0.003357 0.0 
0.304669 0.003374 0.0 
0.306231 0.003391 0.0 
0.307794 0.003409 0.0 
0.309356 0.003426 0.0 
0.310918 0.003443 0.0 
0.312481 0.003460 0.0 
0.314043 0.003478 0.0 
0.315606 0.003495 0.0 
0.317168 0.003512 0.0 
0.318730 0.003530 0.0 
0.320293 0.003547 0.0 
0.321855 0.003564 0.0 
0.323418 0.003582 0.0 
0.324980 0.003599 0.0 
0.326542 0.003616 0.0 
0.328105 0.003634 0.0 
0.329667 0.003651 0.0 
0.331230 0.003668 0.0 
0.332792 0.003685 0.0 
0.334354 0.003703 0.0 
0.335917 0.003720 0.0 
0.337479 0.003737 0.0 
0.339042 0.003755 0.0 
0.340604 0.003772 0.0 
0.342167 0.003789 0.0 
0.343729 0.003807 0.0 
0.345291 0.003824 0.0 
0.346854 0.003841 0.0 
0.348416 0.003858 0.0 
0.349979 0.003876 0.0 
0.351541 0.003893 0.0 
0.353103 0.003910 0.0 
0.354666 0.003928 0.0 
0.356228 0.003945 0.0 
0.357791 0.003962 0.0 
0.359353 0.003980 0.0 
0.360915 0.003997 0.0 
0.362478 0.004014 0.0 
0.364040 0.004031 0.0 
0.365603 0.004049 0.0 
0.367165 0.004066 0.0 
0.368727 0.004083 0.0 
0.370290 0.004101 0.0 
0.371852 0.004118 0.0 
0.373415 0.004135 0.0 
0.374977 0.004153 0.0 
0.376539 0.004170 0.0 
0.378102 0.004187 0.0 
0.379664 0.004204 0.0 
0.381227 0.004222 0.0 
0.382789 0.004239 0.0 
0.384351 0.004256 0.0 
0.385914 0.004274 0.0 
0.387476 0.004291 0.0 
0.389039 0.004308 0.0 
0.390601 0.004326 0.0 
0.392163 0.004343 0.0 
0.393726 0.004360 0.0 
0.395288 0.004378 0.0 
0.396851 0.004395 0.0 
0.398413 0.004412 0.0 
0.399975 0.004429 0.0 
0.401538 0.004447 0.0 
0.403100 0.004464 0.0 
0.404663 0.004481 0.0 
0.406225 0.004499 0.0 
0.407787 0.004516 0.0 
0.409350 0.004533 0.0 
0.410912 0.004551 0.0 
0.412475 0.004568 0.0 
0.414037 0.004585 0.0 
0.415600 0.004602 0.0 
0.417162 0.004620 0.0 
0.418724 0.004637 0.0 
0.420287 0.004654 0.0 
0.421849 0.004672 0.0 
0.423412 0.004689 0.0 
0.424974 0.004706 0.0 
0.426536 0.004724 0.0 
0.428099 0.004741 0.0 
0.429661 0.004758 0.0 
0.431224 0.004775 0.0 
0.432786 0.004793 0.0 
0.434348 0.004810 0.0 
0.435911 0.004827 0.0 
0.437473 0.004845 0.0 
0.439036 0.004862 0.0 
0.440598 0.004879 0.0 
0.442160 0.004897 0.0 
0.443723 0.004914 0.0 
0.445285 0.004931 0.0 
0.446848 0.004948 0.0 
0.448410 0.004966 0.0 
0.449972 0.004983 0.0 
0.451535 0.005000 0.0 
0.453097 0.005018 0.0 
0.454660 0.005035 0.0 
0.456222 0.005052 0.0 
0.457784 0.005070 0.0 
0.459347 0.005087 0.0 
0.460909 0.005104 0.0 
0.462472 0.005122 0.0 
0.464034 0.005139 0.0 
0.465596 0.005156 0.0 
0.467159 0.005173 0.0 
0.468721 0.005191 0.0 
0.470284 0.005208 0.0 
0.471846 0.005225 0.0 
0.473408 0.005243 0.0 
0.474971 0.005260 0.0 
0.476533 0.005277 0.0 
0.478096 0.005295 0.0 
0.479658 0.005312 0.0 
0.481220 0.005329 0.0 
0.482783 0.005346 0.0 
0.484345 0.005364 0.0 
0.485908 0.005381 0.0 
0.487470 0.005398 0.0 
0.489033 0.005416 0.0 
0.490595 0.005433 0.0 
0.492157 0.005450 0.0 
0.493720 0.005468 0.0 
0.495282 0.005485 0.0 
0.496845 0.005502 0.0 
0.498407 0.005519 0.0 
0.499969 0.005537 0.0 
0.299926 0.006659 0.0 
0.301488 0.006693 0.0 
0.303050 0.006728 0.0 
0.304612 0.006763 0.0 
0.306175 0.006798 0.0 
0.307737 0.006832 0.0 
0.309299 0.006867 0.0 
0.310861 0.006902 0.0 
0.312423 0.006936 0.0 
0.313985 0.006971 0.0 
0.315547 0.007006 0.0 
0.317109 0.007040 0.0 
0.318671 0.007075 0.0 
0.320234 0.007110 0.0 
0.321796 0.007144 0.0 
0.323358 0.007179 0.0 
0.324920 0.007214 0.0 
0.326482 0.007248 0.0 
0.328044 0.007283 0.0 
0.329606 0.007318 0.0 
0.331168 0.007352 0.0 
0.332731 0.007387 0.0 
0.334293 0.007422 0.0 
0.335855 0.007456 0.0 
0.337417 0.007491 0.0 
0.338979 0.007526 0.0 
0.340541 0.007560 0.0 
0.342103 0.007595 0.0 
0.343665 0.007630 0.0 
0.345227 0.007665 0.0 
0.346790 0.007699 0.0 
0.348352 0.007734 0.0 
0.349914 0.007769 0.0 
0.351476 0.007803 0.0 
0.353038 0.007838 0.0 
0.354600 0.007873 0.0 
0.356162 0.007907 0.0 
0.357724 0.007942 0.0 
0.359286 0.007977 0.0 
0.360849 0.008011 0.0 
0.362411 0.008046 0.0 
0.363973 0.008081 0.0 
0.365535 0.008115 0.0 
0.367097 0.008150 0.0 
0.368659 0.008185 0.0 
0.370221 0.008219 0.0 
0.371783 0.008254 0.0 
0.373345 0.008289 0.0 
0.374908 0.008323 0.0 
0.376470 0.008358 0.0 
0.378032 0.008393 0.0 
0.379594 0.008428 0.0 
0.381156 0.008462 0.0 
0.382718 0.008497 0.0 
0.384280 0.008532 0.0 
0.385842 0.008566 0.0 
0.387405 0.008601 0.0 
0.388967 0.008636 0.0 
0.390529 0.008670 0.0 
0.392091 0.008705 0.0 
0.393653 0.008740 0.0 
0.395215 0.008774 0.0 
0.396777 0.008809 0.0 
0.398339 0.008844 0.0 
0.399901 0.008878 0.0 
0.401464 0.008913 0.0 
0.403026 0.008948 0.0 
0.404588 0.008982 0.0 
0.406150 0.009017 0.0 
0.407712 0.009052 0.0 
0.409274 0.009086 0.0 
0.410836 0.009121 0.0 
0.412398 0.009156 0.0 
0.413960 0.009191 0.0 
0.415523 0.009225 0.0 
0.417085 0.009260 0.0 
0.418647 0.009295 0.0 
0.420209 0.009329 0.0 
0.421771 0.009364 0.0 
0.423333 0.009399 0.0 
0.424895 0.009433 0.0 
0.426457 0.009468 0.0 
0.428020 0.009503 0.0 
0.429582 0.009537 0.0 
0.431144 0.009572 0.0 
0.432706 0.009607 0.0 
0.434268 0.009641 0.0 
0.435830 0.009676 0.0 
0.437392 0.009711 0.0 
0.438954 0.009745 0.0 
0.440516 0.009780 0.0 
0.442079 0.009815 0.0 
0.443641 0.009849 0.0 
0.445203 0.009884 0.0 
0.446765 0.009919 0.0 
0.448327 0.009953 0.0 
0.449889 0.009988 0.0 
0.451451 0.010023 0.0 
0.453013 0.010058 0.0 
0.454575 0.010092 0.0 
0.456138 0.010127 0.0 
0.457700 0.010162 0.0 
0.459262 0.010196 0.0 
0.460824 0.010231 0.0 
0.462386 0.010266 0.0 
0.463948 0.010300 0.0 
0.465510 0.010335 0.0 
0.467072 0.010370 0.0 
0.468635 0.010404 0.0 
0.470197 0.010439 0.0 
0.471759 0.010474 0.0 
0.473321 0.010508 0.0 
0.474883 0.010543 0.0 
0.476445 0.010578 0.0 
0.478007 0.010612 0.0 
0.479569 0.010647 0.0 
0.481131 0.010682 0.0 
0.482694 0.010716 0.0 
0.484256 0.010751 0.0 
0.485818 0.010786 0.0 
0.487380 0.010821 0.0 
0.488942 0.010855 0.0 
0.490504 0.010890 0.0 
0.492066 0.010925 0.0 
0.493628 0.010959 0.0 
0.495190 0.010994 0.0 
0.496753 0.011029 0.0 
0.498315 0.011063 0.0 
0.499877 0.011098 0.0 
0.299833 0.010010 0.0 
0.301395 0.010062 0.0 
0.302956 0.010114 0.0 
0.304518 0.010166 0.0 
0.306079 0.010218 0.0 
0.307641 0.010270 0.0 
0.309203 0.010322 0.0 
0.310764 0.010375 0.0 
0.312326 0.010427 0.0 
0.313888 0.010479 0.0 
0.315449 0.010531 0.0 
0.317011 0.010583 0.0 
0.318573 0.010635 0.0 
0.320134 0.010687 0.0 
0.321696 0.010740 0.0 
0.323257 0.010792 0.0 
0.324819 0.010844 0.0 
0.326381 0.010896 0.0 
0.327942 0.010948 0.0 
0.329504 0.011000 0.0 
0.331066 0.011052 0.0 
0.332627 0.011104 0.0 
0.334189 0.011157 0.0 
0.335750 0.011209 0.0 
0.337312 0.011261 0.0 
0.338874 0.011313 0.0 
0.340435 0.011365 0.0 
0.341997 0.011417 0.0 
0.343559 0.011469 0.0 
0.345120 0.011522 0.0 
0.346682 0.011574 0.0 
0.348243 0.011626 0.0 
0.349805 0.011678 0.0 
0.351367 0.011730 0.0 
0.352928 0.011782 0.0 
0.354490 0.011834 0.0 
0.356052 0.011886 0.0 
0.357613 0.011939 0.0 
[...]
<PointData  Vectors="sigma"> 
<DataArray  type="Float64"  Name="sigma" NumberOfComponents="3" format="ascii"> 
-29711.6   63820.8   -34.7849   
-29202.8   63347.6   -8.25415   
-28724   62867.2   -1.37827   
-28258.4   62395.4   -0.14199   
-27800.8   61931.7   0.0141296   
-27350.1   61475.2   0.0167256   
-26906.2   61025.5   0.00906001   
-26468.9   60582.6   0.00491567   
-26038   60146.3   0.00304727   
-25613.5   59716.5   0.00216453   
-25195.3   59293.1   0.00170451   
-24783.2   58875.9   0.00144302   
-24377.1   58464.8   0.00128466   
-23977   58059.7   0.00118404   
-23582.6   57660.5   0.00111748   
-23193.9   57267.1   0.00107171   
-22810.8   56879.4   0.00103901   
-22433.1   56497.2   0.00101472   
-22060.8   56120.4   0.000995969   
-21693.8   55749   0.000980945   
-21332   55382.9   0.000968466   
-20975.2   55021.9   0.000957769   
-20623.4   54665.9   0.000948349   
-20276.4   54314.9   0.000939864   
-19934.3   53968.8   0.000932072   
-19596.8   53627.4   0.000924798   
-19264   53290.8   0.000917931   
-18935.7   52958.7   0.000911393   
-18611.9   52631.2   0.000905117   
-18292.4   52308.1   0.000899056   
-17977.3   51989.4   0.000893172   
-17666.3   51674.9   0.000887453   
-17359.5   51364.7   0.000881865   
-17056.8   51058.5   0.000876402   
-16758.1   50756.5   0.000871049   
-16463.3   50458.4   0.000865796   
-16172.3   50164.3   0.000860633   
-15885.1   49873.9   0.000855556   
-15601.7   49587.4   0.000850565   
-15321.9   49304.6   0.000845652   
-15045.8   49025.4   0.000840805   
-14773.1   48749.9   0.000836042   
-14504   48477.8   0.000831342   
-14238.3   48209.3   0.000826706   
-13975.9   47944.1   0.00082213   
-13716.8   47682.3   0.000817621   
-13461   47423.7   0.000813172   
-13208.4   47168.5   0.000808778   
-12958.9   46916.4   0.000804443   
-12712.5   46667.4   0.000800168   
-12469.2   46421.5   0.000795943   
-12228.8   46178.7   0.000791771   
-11991.4   45938.8   0.000787656   
-11756.9   45701.9   0.000783591   
-11525.2   45467.9   0.000779578   
-11296.3   45236.6   0.000775612   
-11070.2   45008.2   0.000771692   
-10846.8   44782.6   0.00076782   
-10626   44559.6   0.000764002   
-10407.9   44339.3   0.000760228   
-10192.4   44121.6   0.000756497   
-9979.39   43906.5   0.000752812   
-9768.91   43694   0.000749166   
-9560.89   43483.9   0.000745567   
-9355.3   43276.3   0.000742008   
-9152.09   43071.1   0.000738493   
-8951.24   42868.3   0.000735015   
-8752.71   42667.8   0.000731577   
-8556.45   42469.7   0.000728188   
-8362.45   42273.8   0.000724833   
-8170.65   42080.2   0.000721516   
-7981.03   41888.7   0.000718239   
-7793.56   41699.5   0.000714999   
-7608.2   41512.4   0.000711795   
-7424.92   41327.3   0.000708623   
-7243.69   41144.4   0.000705491   
-7064.48   40963.5   0.000702395   
-6887.26   40784.7   0.000699331   
-6712   40607.8   0.000696298   
-6538.68   40432.8   0.000693304   
-6367.25   40259.8   0.000690342   
-6197.71   40088.7   0.000687411   
-6030.01   39919.5   0.000684512   
-5864.13   39752.1   0.000681647   
-5700.05   39586.5   0.00067881   
-5537.74   39422.7   0.000676008   
-5377.17   39260.7   0.000673232   
-5218.32   39100.4   0.000670488   
-5061.17   38941.9   0.000667774   
-4905.68   38785   0.000665087   
-4751.85   38629.8   0.000662427   
-4599.64   38476.2   0.000659797   
-4449.03   38324.3   0.000657195   
-4300   38173.9   0.000654619   
-4152.52   38025.2   0.000652071   
-4006.58   37878   0.000649554   
-3862.16   37732.3   0.000647059   
-3719.23   37588.1   0.000644591   
-3577.77   37445.4   0.00064215   
-3437.76   37304.2   0.000639727   
-3299.19   37164.4   0.000637335   
-3162.02   37026.1   0.000634965   
-3026.26   36889.2   0.000632623   
-2891.87   36753.6   0.000630299   
-2758.83   36619.5   0.000627999   
-2627.14   36486.7   0.000625723   
-2496.76   36355.2   0.000623471   
-2367.69   36225   0.000621241   
-2239.9   36096.2   0.000619035   
-2113.38   35968.6   0.000616853   
-1988.12   35842.3   0.000614692   
-1864.09   35717.2   0.000612551   
-1741.27   35593.4   0.000610425   
-1619.67   35470.8   0.000608325   
-1499.25   35349.4   0.000606245   
-1380   35229.2   0.000604184   
-1261.91   35110.1   0.000602143   
-1144.96   34992.2   0.000600129   
-1029.14   34875.5   0.000598141   
-914.429   34759.8   0.000596191   
-800.82   34645.3   0.000594319   
-688.295   34531.9   0.000592612   
-576.842   34419.5   0.00059127   
-466.446   34308.3   0.000590742   
-357.094   34198   0.000591904   
-248.774   34088.9   0.000596194   
-141.471   33980.7   0.000604824   
-35.1743   33873.6   0.000613598   
-70.496   33732.3   0.000590411   
-29654.1   63825.7   -1020.41   
-29183.3   63330.3   -1019.74   
-28712.7   62854.7   -1012.09   
-28248   62384.7   -1002.66   
-27790.3   61921.2   -992.903   
-27339.6   61464.6   -983.113   
-26895.6   61015   -973.375   
-26458.3   60572.1   -963.724   
-26027.5   60135.9   -954.183   
-25603.1   59706.1   -944.762   
-25185   59282.8   -935.467   
-24773   58865.7   -926.301   
-24367   58454.7   -917.265   
-23966.9   58049.7   -908.356   
-23572.6   57650.6   -899.575   
-23184   57257.3   -890.919   
-22801   56869.6   -882.387   
-22423.5   56487.5   -873.975   
-22051.3   56110.8   -865.683   
-21684.3   55739.5   -857.508   
-21322.6   55373.5   -849.448   
-20965.9   55012.5   -841.501   
-20614.1   54656.7   -833.664   
-20267.3   54305.8   -825.937   
-19925.2   53959.7   -818.316   
-19587.9   53618.5   -810.8   
-19255.1   53281.9   -803.388   
-18926.9   52949.9   -796.076   
-18603.2   52622.5   -788.864   
-18283.8   52299.4   -781.749   
-17968.7   51980.8   -774.73   
-17657.8   51666.4   -767.805   
-17351.1   51356.2   -760.973   
-17048.4   51050.2   -754.231   
-16749.8   50748.2   -747.579   
-16455   50450.2   -741.014   
-16164.2   50156.1   -734.535   
-15877.1   49865.9   -728.141   
-15593.7   49579.4   -721.83   
-15314   49296.7   -715.601   
-15037.9   49017.6   -709.452   
-14765.4   48742.1   -703.382   
-14496.3   48470.1   -697.389   
-14230.6   48201.6   -691.473   
-13968.3   47936.5   -685.631   
-13709.3   47674.7   -679.864   
-13453.5   47416.3   -674.169   
-13201   47161.1   -668.545   
-12951.6   46909   -662.991   
-12705.2   46660.1   -657.506   
-12461.9   46414.3   -652.089   
-12221.6   46171.5   -646.738   
-11984.3   45931.7   -641.453   
-11749.8   45694.9   -636.233   
-11518.2   45460.9   -631.076   
-11289.4   45229.7   -625.982   
-11063.3   45001.4   -620.949   
-10839.9   44775.7   -615.976   
-10619.3   44552.8   -611.063   
-10401.2   44332.6   -606.209   
-10185.7   44115   -601.412   
-9972.78   43899.9   -596.672   
-9762.35   43687.4   -591.987   
-9554.38   43477.4   -587.358   
-9348.84   43269.8   -582.782   
-9145.69   43064.7   -578.26   
-8944.89   42861.9   -573.791   
-8746.4   42661.5   -569.373   
-8550.2   42463.4   -565.006   
-8356.24   42267.6   -560.688   
-8164.49   42074   -556.421   
-7974.91   41882.6   -552.201   
-7787.49   41693.4   -548.03   
-7602.17   41506.3   -543.905   
-7418.94   41321.4   -539.827   
-7237.75   41138.5   -535.795   
-7058.59   40957.6   -531.808   
-6881.41   40778.8   -527.865   
-6706.2   40602   -523.965   
-6532.92   40427.1   -520.109   
-6361.54   40254.1   -516.295   
-6192.03   40083   -512.523   
-6024.37   39913.8   -508.793   
-5858.54   39746.5   -505.102   
-5694.5   39581   -501.452   
-5532.22   39417.2   -497.841   
-5371.69   39255.2   -494.269   
-5212.89   39095   -490.736   
-5055.77   38936.5   -487.24   
-4900.33   38779.6   -483.781   
-4746.53   38624.5   -480.359   
-4594.35   38470.9   -476.973   
-4443.78   38319   -473.623   
-4294.79   38168.7   -470.308   
-4147.35   38020   -467.028   
-4001.45   37872.8   -463.782   
-3857.06   37727.2   -460.57   
-3714.16   37583   -457.391   
-3572.74   37440.4   -454.244   
-3432.76   37299.2   -451.13   
-3294.22   37159.5   -448.048   
-3157.1   37021.2   -444.998   
-3021.36   36884.3   -441.978   
-2887.01   36748.8   -438.989   
-2754   36614.6   -436.031   
-2622.34   36481.9   -433.102   
-2492   36350.4   -430.203   
-2362.96   36220.3   -427.332   
-2235.2   36091.5   -424.49   
-2108.71   35963.9   -421.677   
-1983.48   35837.7   -418.891   
-1859.48   35712.6   -416.133   
-1736.7   35588.8   -413.402   
-1615.12   35466.3   -410.698   
-1494.73   35344.9   -408.02   
-1375.51   35224.7   -405.369   
-1257.45   35105.7   -402.743   
-1140.53   34987.8   -400.142   
-1024.73   34871.1   -397.567   
-910.054   34755.5   -395.016   
-796.473   34641   -392.49   
-683.976   34527.6   -389.988   
-572.55   34415.2   -387.51   
-462.182   34304   -385.056   
-352.857   34193.8   -382.624   
-244.563   34084.6   -380.216   
-137.287   33976.5   -377.83   
-31.0163   33869.4   -375.467   
-66.3508   33728.1   -374.294   
-29637.1   63777.9   -2082.08   
-29152.7   63302.4   -2055.16   
-28680.1   62823   -2032.8   
-28215.3   62351.9   -2011.67   
-27757.7   61888.4   -1991.1   
-27307.1   61432   -1970.93   
-26863.3   60982.6   -1951.1   
-26426.3   60540   -1931.59   
-25995.7   60104.1   -1912.37   
-25571.6   59674.6   -1893.43   
-25153.8   59251.6   -1874.77   
-24742.1   58834.7   -1856.38   
-24336.4   58424   -1838.26   
-23936.6   58019.3   -1820.4   
-23542.6   57620.5   -1802.8   
-23154.3   57227.5   -1785.45   
-22771.5   56840.1   -1768.34   
-22394.3   56458.3   -1751.49   
-22022.3   56081.9   -1734.87   
-21655.7   55710.9   -1718.48   
-21294.2   55345.1   -1702.33   
-20937.7   54984.4   -1686.4   
-20586.3   54628.8   -1670.7   
-20239.7   54278.2   -1655.21   
-19897.9   53932.4   -1639.94   
-19560.8   53591.4   -1624.88   
-19228.3   53255   -1610.02   
-18900.3   52923.3   -1595.37   
-18576.8   52596.1   -1580.92   
-18257.7   52273.3   -1566.66   
-17942.8   51954.9   -1552.59   
-17632.2   51640.8   -1538.71   
-17325.7   51330.8   -1525.02   
-17023.2   51025   -1511.51   
-16724.8   50723.2   -1498.18   
-16430.3   50425.4   -1485.02   
-16139.6   50131.6   -1472.04   
-15852.7   49841.5   -1459.22   
-15569.6   49555.3   -1446.58   
-15290.1   49272.8   -1434.09   
-15014.2   48993.9   -1421.77   
-14741.9   48718.6   -1409.61   
-14473   48446.8   -1397.6   
-14207.5   48178.5   -1385.74   
-13945.4   47913.6   -1374.03   
-13686.6   47652   -1362.47   
-13431   47393.8   -1351.06   
-13178.6   47138.7   -1339.79   
-12929.4   46886.9   -1328.66   
-12683.3   46638.2   -1317.67   
-12440.1   46392.5   -1306.81   
-12200   46149.9   -1296.09   
-11962.8   45910.3   -1285.5   
-11728.5   45673.6   -1275.04   
-11497.1   45439.8   -1264.7   
-11268.4   45208.8   -1254.49   
-11042.6   44980.6   -1244.41   
-10819.4   44755.2   -1234.44   
-10598.8   44532.4   -1224.6   
-10380.9   44312.3   -1214.87   
-10165.6   44094.9   -1205.25   
-9952.84   43880   -1195.75   
-9742.57   43667.6   -1186.37   
-9534.75   43457.8   -1177.09   
-9329.37   43250.4   -1167.92   
-9126.36   43045.4   -1158.86   
-8925.71   42842.8   -1149.9   
-8727.37   42642.5   -1141.05   
-8531.32   42444.5   -1132.29   
-8337.5   42248.9   -1123.64   
-8145.89   42055.4   -1115.09   
-7956.46   41864.2   -1106.63   
-7769.17   41675.1   -1098.27   
-7584   41488.2   -1090.01   
-7400.9   41303.3   -1081.84   
-7219.85   41120.6   -1073.75   
-7040.82   40939.9   -1065.76   
-6863.77   40761.2   -1057.86   
-6688.69   40584.4   -1050.05   
-6515.53   40409.7   -1042.32   
-6344.28   40236.9   -1034.68   
-6174.9   40065.9   -1027.12   
-6007.37   39896.8   -1019.64   
-5841.66   39729.6   -1012.25   
-5677.74   39564.2   -1004.93   
-5515.59   39400.6   -997.694   
-5355.18   39238.7   -990.536   
-5196.49   39078.6   -983.454   
-5039.49   38920.2   -976.448   
-4884.16   38763.5   -969.517   
-4730.48   38608.4   -962.659   
-4578.42   38455   -955.874   
-4427.95   38303.2   -949.16   
-4279.07   38153   -942.517   
-4131.74   38004.4   -935.943   
-3985.95   37857.3   -929.438   
-3841.67   37711.8   -923   
-3698.87   37567.7   -916.629   
-3557.56   37425.2   -910.324   
-3417.69   37284.1   -904.083   
-3279.25   37144.5   -897.907   
-3142.23   37006.3   -891.794   
-3006.59   36869.5   -885.742   
-2872.33   36734.1   -879.753   
-2739.43   36600.1   -873.823   
-2607.87   36467.4   -867.954   
-2477.62   36336.1   -862.143   
-2348.67   36206   -856.391   
-2221.01   36077.3   -850.696   
-2094.62   35949.8   -845.057   
-1969.48   35823.7   -839.475   
-1845.57   35698.7   -833.947   
-1722.88   35575   -828.474   
-1601.39   35452.5   -823.055   
-1481.09   35331.2   -817.689   
-1361.96   35211.1   -812.375   
-1243.99   35092.2   -807.113   
-1127.15   34974.4   -801.901   
-1011.45   34857.8   -796.74   
-896.853   34742.3   -791.629   
-783.357   34627.8   -786.566   
-670.943   34514.5   -781.552   
-559.6   34402.3   -776.586   
-449.314   34291.1   -771.667   
-340.07   34181   -766.795   
-231.857   34071.9   -761.968   
-124.661   33963.9   -757.187   
-18.4689   33856.9   -752.451   
-53.8427   33715.6   -750.1   
-29568.9   63729.7   -3115.66   
-29093.5   63239.6   -3086.26   
-28622.6   62764.1   -3054.67   
-28158.7   62294.8   -3023.32   
-27701.9   61832.3   -2992.47   
-27251.9   61376.7   -2962.13   
-26808.8   60928   -2932.27   
-26372.3   60486   -2902.89   
-25942.3   60050.6   -2873.95   
-25518.7   59621.7   -2845.46   
-25101.4   59199.2   -2817.39   
-24690.2   58782.8   -2789.74   
-24285   58372.6   -2762.49   
-23885.7   57968.5   -2735.64   
-23492.2   57570.1   -2709.18   
-23104.4   57177.6   -2683.1   
-22722.1   56790.7   -2657.4   
-22345.3   56409.3   -2632.06   
-21973.8   56033.4   -2607.09   
-21607.6   55662.8   -2582.47   
-21246.6   55297.5   -2558.19   
-20890.6   54937.3   -2534.25   
-20539.5   54582.1   -2510.65   
-20193.4   54231.9   -2487.38   
-19852   53886.5   -2464.43   
-19515.3   53545.9   -2441.8   
-19183.3   53210   -2419.47   
-18855.7   52878.7   -2397.45   
-18532.6   52551.9   -2375.73   
-18213.9   52229.5   -2354.3   
-17899.4   51911.5   -2333.17   
-17589.1   51597.7   -2312.31   
-17283   51288.2   -2291.73   
-16981   50982.7   -2271.43   
-16682.9   50681.3   -2251.4   
-16388.8   50383.9   -2231.63   
-16098.5   50090.4   -2212.12   
-15811.9   49800.7   -2192.86   
-15529.1   49514.8   -2173.85   
-15250   49232.7   -2155.09   
-14974.5   48954.1   -2136.57   
-14702.4   48679.2   -2118.29   
-14433.9   48407.7   -2100.25   
-14168.7   48139.7   -2082.43   
-13907   47875.2   -2064.84   
-13648.5   47613.9   -2047.47   
-13393.2   47356   -2030.32   
-13141.2   47101.3   -2013.38   
-12892.2   46849.7   -1996.65   
-12646.4   46601.3   -1980.13   
-12403.6   46356   -1963.82   
-12163.8   46113.7   -1947.71   
-11926.9   45874.3   -1931.79   
-11692.9   45637.9   -1916.07   
-11461.7   45404.4   -1900.54   
-11233.4   45173.7   -1885.2   
-11007.7   44945.8   -1870.04   
-10784.8   44720.6   -1855.06   
-10564.6   44498.2   -1840.27   
-10347   44278.4   -1825.65   
-10131.9   44061.2   -1811.2   
-9919.4   43846.5   -1796.93   
-9709.39   43634.4   -1782.82   
-9501.84   43424.8   -1768.88   
-9296.7   43217.7   -1755.1   
-9093.96   43013   -1741.48   
-8893.55   42810.6   -1728.02   
-8695.46   42610.6   -1714.71   
-8499.65   42412.9   -1701.56   
-8306.07   42217.4   -1688.56   
-8114.71   42024.2   -1675.71   
-7925.51   41833.2   -1663   
-7738.46   41644.4   -1650.44   
-7553.51   41457.7   -1638.02   
-7370.64   41273.1   -1625.74   
-7189.82   41090.5   -1613.59   
-7011.01   40910.1   -1601.58   
-6834.19   40731.6   -1589.71   
-6659.32   40555.1   -1577.97   
-6486.38   40380.5   -1566.35   
-6315.35   40207.9   -1554.87   
-6146.18   40037.2   -1543.51   
-5978.85   39868.3   -1532.27   
-5813.35   39701.3   -1521.16   
-5649.63   39536.1   -1510.16   
-5487.68   39372.7   -1499.29   
-5327.48   39211   -1488.53   
-5168.98   39051.1   -1477.89   
-5012.18   38892.9   -1467.36   
-4857.04   38736.4   -1456.95   
-4703.55   38581.5   -1446.64   
-4551.68   38428.3   -1436.45   
-4401.41   38276.7   -1426.36   
-4252.71   38126.7   -1416.37   
-4105.57   37978.2   -1406.49   
-3959.95   37831.3   -1396.72   
-3815.85   37686   -1387.04   
-3673.24   37542.1   -1377.47   
-3532.1   37399.7   -1367.99   
-3392.4   37258.8   -1358.62   
-3254.14   37119.4   -1349.34   
-3117.29   36981.4   -1340.15   
-2981.82   36844.7   -1331.05   
-2847.73   36709.5   -1322.05   
-2714.99   36575.6   -1313.14   
-2583.59   36443.1   -1304.32   
-2453.51   36311.9   -1295.59   
-2324.72   36182.1   -1286.95   
-2197.22   36053.5   -1278.39   
-2070.99   35926.2   -1269.92   
-1946   35800.2   -1261.53   
-1822.25   35675.4   -1253.22   
-1699.71   35551.9   -1244.99   
-1578.38   35429.5   -1236.85   
-1458.22   35308.4   -1228.79   
-1339.24   35188.4   -1220.8   
-1221.42   35069.6   -1212.89   
-1104.73   34952   -1205.06   
-989.166   34835.5   -1197.31   
-874.714   34720.1   -1189.62   
-761.359   34605.8   -1182.02   
-649.086   34492.7   -1174.48   
-537.882   34380.6   -1167.02   
-427.733   34269.5   -1159.63   
-318.626   34159.6   -1152.31   
-210.547   34050.6   -1145.05   
-103.485   33942.7   -1137.87   
2.5747   33835.8   -1130.75   
-32.8649   33694.7   -1127.22   
-29491.1   63643.8   -4165.23   
-29012.2   63162.2   -4121.11   
-28542.2   62684.8   -4079.01   
-28079.2   62215.6   -4037.45   
-27623.3   61753.8   -3996.44   
-27174.2   61299   -3956.01   
-26731.9   60851.1   -3916.19   
-26296.2   60409.8   -3876.96   
-25867   59975.2   -3838.32   
-25444.1   59547.1   -3800.26   
-25027.5   59125.3   -3762.77   
-24617.1   58709.7   -3725.83   
-24212.6   58300.2   -3689.43   
-23814   57896.7   -3653.57   
-23421.2   57499.1   -3618.23   
-23034   57107.2   -3583.39   
-22652.4   56721   -3549.06   
-22276.3   56340.3   -3515.22   
-21905.5   55965.1   -3481.87   
-21539.9   55595.1   -3448.98   
-21179.5   55230.4   -3416.56   
-20824.1   54870.8   -3384.59   
-20473.7   54516.3   -3353.07   
-20128.2   54166.7   -3321.99   
-19787.4   53821.9   -3291.34   
-19451.3   53481.9   -3261.11   
-19119.8   53146.6   -3231.29   
-18792.9   52815.8   -3201.88   
-18470.3   52489.6   -3172.87   
-18152.1   52167.8   -3144.26   
-17838.2   51850.3   -3116.03   
-17528.5   51537.1   -3088.17   
-17223   51228.1   -3060.69   
-16921.4   50923.2   -3033.58   
-16623.9   50622.3   -3006.82   
-16330.3   50325.4   -2980.42   
-16040.5   50032.4   -2954.36   
-15754.5   49743.3   -2928.64   
-15472.2   49457.9   -2903.26   
-15193.5   49176.2   -2878.2   
-14918.4   48898.1   -2853.47   
-14646.9   48623.6   -2829.06   
-14378.8   48352.7   -2804.95   
-14114.2   48085.1   -2781.16   
-13852.8   47821   -2757.66   
-13594.8   47560.2   -2734.46   
-13340   47302.7   -2711.56   
-13088.4   47048.5   -2688.94   
-12839.9   46797.4   -2666.6   
-12594.5   46549.4   -2644.54   
-12352.1   46304.5   -2622.75   
-12112.7   46062.6   -2601.23   
-11876.3   45823.7   -2579.98   
-11642.7   45587.7   -2558.98   
-11411.9   45354.6   -2538.24   
-11183.9   45124.3   -2517.75   
-10958.7   44896.8   -2497.5   
-10736.2   44672   -2477.5   
-10516.3   44449.9   -2457.74   
-10299.1   44230.5   -2438.22   
-10084.4   44013.7   -2418.92   
-9872.3   43799.4   -2399.86   
-9662.65   43587.7   -2381.02   
-9455.47   43378.5   -2362.4   
-9250.7   43171.7   -2344   
-9048.3   42967.3   -2325.81   
-8848.26   42765.3   -2307.83   
-8650.51   42565.6   -2290.06   
-8455.04   42368.3   -2272.5   
-8261.81   42173.2   -2255.13   
-8070.78   41980.3   -2237.97   
-7881.92   41789.6   -2221   
-7695.19   41601.1   -2204.22   
-7510.57   41414.7   -2187.63   
-7328.03   41230.5   -2171.23   
-7147.52   41048.2   -2155.01   
-6969.03   40868.1   -2138.97   
-6792.52   40689.9   -2123.11   
-6617.96   40513.7   -2107.43   
-6445.32   40339.5   -2091.92   
-6274.59   40167.2   -2076.58   
-6105.72   39996.7   -2061.41   
-5938.69   39828.2   -2046.4   