<VTKFile type="UnstructuredGrid"  version="0.1"   > 
<UnstructuredGrid> 
<Piece  NumberOfPoints="  3136" NumberOfCells=" 3024"> 
<Points> 
<DataArray  type="Float64"  NumberOfComponents="3"  format="ascii" > 
0.000000 0.000000 0.0 
0.188125 0.000000 0.0 
0.376250 0.000000 0.0 
0.564375 0.000000 0.0 
0.752500 0.000000 0.0 
0.940625 0.000000 0.0 
1.128750 0.000000 0.0 
1.316875 0.000000 0.0 
1.505000 0.000000 0.0 
1.693125 0.000000 0.0 
1.881250 0.000000 0.0 
2.069375 0.000000 0.0 
2.257500 0.000000 0.0 
2.445625 0.000000 0.0 
2.633750 0.000000 0.0 
2.821875 0.000000 0.0 
3.010000 0.000000 0.0 
3.062500 0.000000 0.0 
3.115000 0.000000 0.0 
3.167500 0.000000 0.0 
3.220000 0.000000 0.0 
3.272500 0.000000 0.0 
3.325000 0.000000 0.0 
3.377500 0.000000 0.0 
3.430000 0.000000 0.0 
3.482500 0.000000 0.0 
3.535000 0.000000 0.0 
3.587500 0.000000 0.0 
3.640000 0.000000 0.0 
3.692500 0.000000 0.0 
3.745000 0.000000 0.0 
3.797500 0.000000 0.0 
3.850000 0.000000 0.0 
4.046875 0.000000 0.0 
4.243750 0.000000 0.0 
4.440625 0.000000 0.0 
4.637500 0.000000 0.0 
4.834375 0.000000 0.0 
5.031250 0.000000 0.0 
5.228125 0.000000 0.0 
5.425000 0.000000 0.0 
5.621875 0.000000 0.0 
5.818750 0.000000 0.0 
6.015625 0.000000 0.0 
6.212500 0.000000 0.0 
6.409375 0.000000 0.0 
6.606250 0.000000 0.0 
6.803125 0.000000 0.0 
7.000000 0.000000 0.0 
0.000000 0.450000 0.0 
0.188125 0.450000 0.0 
0.376250 0.450000 0.0 
0.564375 0.450000 0.0 
0.752500 0.450000 0.0 
0.940625 0.450000 0.0 
1.128750 0.450000 0.0 
1.316875 0.450000 0.0 
1.505000 0.450000 0.0 
1.693125 0.450000 0.0 
1.881250 0.450000 0.0 
2.069375 0.450000 0.0 
2.257500 0.450000 0.0 
2.445625 0.450000 0.0 
2.633750 0.450000 0.0 
2.821875 0.450000 0.0 
3.010000 0.450000 0.0 
3.062500 0.450000 0.0 
3.115000 0.450000 0.0 
3.167500 0.450000 0.0 
3.220000 0.450000 0.0 
3.272500 0.450000 0.0 
3.325000 0.450000 0.0 
3.377500 0.450000 0.0 
3.430000 0.450000 0.0 
3.482500 0.450000 0.0 
3.535000 0.450000 0.0 
3.587500 0.450000 0.0 
3.640000 0.450000 0.0 
3.692500 0.450000 0.0 
3.745000 0.450000 0.0 
3.797500 0.450000 0.0 
3.850000 0.450000 0.0 
4.046875 0.450000 0.0 
4.243750 0.450000 0.0 
4.440625 0.450000 0.0 
4.637500 0.450000 0.0 
4.834375 0.450000 0.0 
5.031250 0.450000 0.0 
5.228125 0.450000 0.0 
5.425000 0.450000 0.0 
5.621875 0.450000 0.0 
5.818750 0.450000 0.0 
6.015625 0.450000 0.0 
6.212500 0.450000 0.0 
6.409375 0.450000 0.0 
6.606250 0.450000 0.0 
6.803125 0.450000 0.0 
7.000000 0.450000 0.0 
0.000000 0.900000 0.0 
0.188125 0.900000 0.0 
0.376250 0.900000 0.0 
0.564375 0.900000 0.0 
0.752500 0.900000 0.0 
0.940625 0.900000 0.0 
1.128750 0.900000 0.0 
1.316875 0.900000 0.0 
1.505000 0.900000 0.0 
1.693125 0.900000 0.0 
1.881250 0.900000 0.0 
2.069375 0.900000 0.0 
2.257500 0.900000 0.0 
2.445625 0.900000 0.0 
2.633750 0.900000 0.0 
2.821875 0.900000 0.0 
3.010000 0.900000 0.0 
3.062500 0.900000 0.0 
3.115000 0.900000 0.0 
3.167500 0.900000 0.0 
3.220000 0.900000 0.0 
3.272500 0.900000 0.0 
3.325000 0.900000 0.0 
3.377500 0.900000 0.0 
3.430000 0.900000 0.0 
3.482500 0.900000 0.0 
3.535000 0.900000 0.0 
3.587500 0.900000 0.0 
3.640000 0.900000 0.0 
3.692500 0.900000 0.0 
3.745000 0.900000 0.0 
3.797500 0.900000 0.0 
3.850000 0.900000 0.0 
4.046875 0.900000 0.0 
4.243750 0.900000 0.0 
4.440625 0.900000 0.0 
4.637500 0.900000 0.0 
4.834375 0.900000 0.0 
5.031250 0.900000 0.0 
5.228125 0.900000 0.0 
5.425000 0.900000 0.0 
5.621875 0.900000 0.0 
5.818750 0.900000 0.0 
6.015625 0.900000 0.0 
6.212500 0.900000 0.0 
6.409375 0.900000 0.0 
6.606250 0.900000 0.0 
6.803125 0.900000 0.0 
7.000000 0.900000 0.0 
0.000000 1.350000 0.0 
0.188125 1.350000 0.0 
0.376250 1.350000 0.0 
0.564375 1.350000 0.0 
0.752500 1.350000 0.0 
0.940625 1.350000 0.0 
1.128750 1.350000 0.0 
1.316875 1.350000 0.0 
1.505000 1.350000 0.0 
1.693125 1.350000 0.0 
1.881250 1.350000 0.0 
2.069375 1.350000 0.0 
2.257500 1.350000 0.0 
2.445625 1.350000 0.0 
2.633750 1.350000 0.0 
2.821875 1.350000 0.0 
3.010000 1.350000 0.0 
3.062500 1.350000 0.0 
3.115000 1.350000 0.0 
3.167500 1.350000 0.0 
3.220000 1.350000 0.0 
3.272500 1.350000 0.0 
3.325000 1.350000 0.0 
3.377500 1.350000 0.0 
3.430000 1.350000 0.0 
3.482500 1.350000 0.0 
3.535000 1.350000 0.0 
3.587500 1.350000 0.0 
3.640000 1.350000 0.0 
3.692500 1.350000 0.0 
3.745000 1.350000 0.0 
3.797500 1.350000 0.0 
3.850000 1.350000 0.0 
4.046875 1.350000 0.0 
4.243750 1.350000 0.0 
4.440625 1.350000 0.0 
4.637500 1.350000 0.0 
4.834375 1.350000 0.0 
5.031250 1.350000 0.0 
5.228125 1.350000 0.0 
5.425000 1.350000 0.0 
5.621875 1.350000 0.0 
5.818750 1.350000 0.0 
6.015625 1.350000 0.0 
6.212500 1.350000 0.0 
6.409375 1.350000 0.0 
6.606250 1.350000 0.0 
6.803125 1.350000 0.0 
7.000000 1.350000 0.0 
0.000000 1.800000 0.0 
0.188125 1.800000 0.0 
0.376250 1.800000 0.0 
0.564375 1.800000 0.0 
0.752500 1.800000 0.0 
0.940625 1.800000 0.0 
1.128750 1.800000 0.0 
1.316875 1.800000 0.0 
1.505000 1.800000 0.0 
1.693125 1.800000 0.0 
1.881250 1.800000 0.0 
2.069375 1.800000 0.0 
2.257500 1.800000 0.0 
2.445625 1.800000 0.0 
2.633750 1.800000 0.0 
2.821875 1.800000 0.0 
3.010000 1.800000 0.0 
3.062500 1.800000 0.0 
3.115000 1.800000 0.0 
3.167500 1.800000 0.0 
3.220000 1.800000 0.0 
3.272500 1.800000 0.0 
3.325000 1.800000 0.0 
3.377500 1.800000 0.0 
3.430000 1.800000 0.0 
3.482500 1.800000 0.0 
3.535000 1.800000 0.0 
3.587500 1.800000 0.0 
3.640000 1.800000 0.0 
3.692500 1.800000 0.0 
3.745000 1.800000 0.0 
3.797500 1.800000 0.0 
3.850000 1.800000 0.0 
4.046875 1.800000 0.0 
4.243750 1.800000 0.0 
4.440625 1.800000 0.0 
4.637500 1.800000 0.0 
4.834375 1.800000 0.0 
5.031250 1.800000 0.0 
5.228125 1.800000 0.0 
5.425000 1.800000 0.0 
5.621875 1.800000 0.0 
5.818750 1.800000 0.0 
6.015625 1.800000 0.0 
6.212500 1.800000 0.0 
6.409375 1.800000 0.0 
6.606250 1.800000 0.0 
6.803125 1.800000 0.0 
7.000000 1.800000 0.0 
0.000000 2.250000 0.0 
0.188125 2.250000 0.0 
0.376250 2.250000 0.0 
0.564375 2.250000 0.0 
0.752500 2.250000 0.0 
0.940625 2.250000 0.0 
1.128750 2.250000 0.0 
1.316875 2.250000 0.0 
1.505000 2.250000 0.0 
1.693125 2.250000 0.0 
1.881250 2.250000 0.0 
2.069375 2.250000 0.0 
2.257500 2.250000 0.0 
2.445625 2.250000 0.0 
2.633750 2.250000 0.0 
2.821875 2.250000 0.0 
3.010000 2.250000 0.0 
3.062500 2.250000 0.0 
3.115000 2.250000 0.0 
3.167500 2.250000 0.0 
3.220000 2.250000 0.0 
3.272500 2.250000 0.0 
3.325000 2.250000 0.0 
3.377500 2.250000 0.0 
3.430000 2.250000 0.0 
3.482500 2.250000 0.0 
3.535000 2.250000 0.0 
3.587500 2.250000 0.0 
3.640000 2.250000 0.0 
3.692500 2.250000 0.0 
3.745000 2.250000 0.0 
3.797500 2.250000 0.0 
3.850000 2.250000 0.0 
4.046875 2.250000 0.0 
4.243750 2.250000 0.0 
4.440625 2.250000 0.0 
4.637500 2.250000 0.0 
4.834375 2.250000 0.0 
5.031250 2.250000 0.0 
5.228125 2.250000 0.0 
5.425000 2.250000 0.0 
5.621875 2.250000 0.0 
5.818750 2.250000 0.0 
6.015625 2.250000 0.0 
6.212500 2.250000 0.0 
6.409375 2.250000 0.0 
6.606250 2.250000 0.0 
6.803125 2.250000 0.0 
7.000000 2.250000 0.0 
0.000000 2.700000 0.0 
0.188125 2.700000 0.0 
0.376250 2.700000 0.0 
0.564375 2.700000 0.0 
0.752500 2.700000 0.0 
0.940625 2.700000 0.0 
1.128750 2.700000 0.0 
1.316875 2.700000 0.0 
1.505000 2.700000 0.0 
1.693125 2.700000 0.0 
1.881250 2.700000 0.0 
2.069375 2.700000 0.0 
2.257500 2.700000 0.0 
2.445625 2.700000 0.0 
2.633750 2.700000 0.0 
2.821875 2.700000 0.0 
3.010000 2.700000 0.0 
3.062500 2.700000 0.0 
3.115000 2.700000 0.0 
3.167500 2.700000 0.0 
3.220000 2.700000 0.0 
3.272500 2.700000 0.0 
3.325000 2.700000 0.0 
3.377500 2.700000 0.0 
3.430000 2.700000 0.0 
3.482500 2.700000 0.0 
3.535000 2.700000 0.0 
3.587500 2.700000 0.0 
3.640000 2.700000 0.0 
3.692500 2.700000 0.0 
3.745000 2.700000 0.0 
3.797500 2.700000 0.0 
3.850000 2.700000 0.0 
4.046875 2.700000 0.0 
4.243750 2.700000 0.0 
4.440625 2.700000 0.0 
4.637500 2.700000 0.0 
4.834375 2.700000 0.0 
5.031250 2.700000 0.0 
5.228125 2.700000 0.0 
5.425000 2.700000 0.0 
5.621875 2.700000 0.0 
5.818750 2.700000 0.0 
6.015625 2.700000 0.0 
6.212500 2.700000 0.0 
6.409375 2.700000 0.0 
6.606250 2.700000 0.0 
6.803125 2.700000 0.0 
7.000000 2.700000 0.0 
0.000000 3.150000 0.0 
0.188125 3.150000 0.0 
0.376250 3.150000 0.0 
0.564375 3.150000 0.0 
0.752500 3.150000 0.0 
0.940625 3.150000 0.0 
1.128750 3.150000 0.0 
1.316875 3.150000 0.0 
1.505000 3.150000 0.0 
1.693125 3.150000 0.0 
1.881250 3.150000 0.0 
2.069375 3.150000 0.0 
2.257500 3.150000 0.0 
2.445625 3.150000 0.0 
2.633750 3.150000 0.0 
2.821875 3.150000 0.0 
3.010000 3.150000 0.0 
3.062500 3.150000 0.0 
3.115000 3.150000 0.0 
3.167500 3.150000 0.0 
3.220000 3.150000 0.0 
3.272500 3.150000 0.0 
3.325000 3.150000 0.0 
3.377500 3.150000 0.0 
3.430000 3.150000 0.0 
3.482500 3.150000 0.0 
3.535000 3.150000 0.0 
3.587500 3.150000 0.0 
3.640000 3.150000 0.0 
3.692500 3.150000 0.0 
3.745000 3.150000 0.0 
3.797500 3.150000 0.0 
3.850000 3.150000 0.0 
4.046875 3.150000 0.0 
4.243750 3.150000 0.0 
4.440625 3.150000 0.0 
4.637500 3.150000 0.0 
4.834375 3.150000 0.0 
5.031250 3.150000 0.0 
5.228125 3.150000 0.0 
5.425000 3.150000 0.0 
5.621875 3.150000 0.0 
5.818750 3.150000 0.0 
6.015625 3.150000 0.0 
6.212500 3.150000 0.0 
6.409375 3.150000 0.0 
6.606250 3.150000 0.0 
6.803125 3.150000 0.0 
7.000000 3.150000 0.0 
0.000000 3.600000 0.0 
0.188125 3.600000 0.0 
0.376250 3.600000 0.0 
0.564375 3.600000 0.0 
0.752500 3.600000 0.0 
0.940625 3.600000 0.0 
1.128750 3.600000 0.0 
1.316875 3.600000 0.0 
1.505000 3.600000 0.0 
1.693125 3.600000 0.0 
1.881250 3.600000 0.0 
2.069375 3.600000 0.0 
2.257500 3.600000 0.0 
2.445625 3.600000 0.0 
2.633750 3.600000 0.0 
2.821875 3.600000 0.0 
3.010000 3.600000 0.0 
3.062500 3.600000 0.0 
3.115000 3.600000 0.0 
3.167500 3.600000 0.0 
3.220000 3.600000 0.0 
3.272500 3.600000 0.0 
3.325000 3.600000 0.0 
3.377500 3.600000 0.0 
3.430000 3.600000 0.0 
3.482500 3.600000 0.0 
3.535000 3.600000 0.0 
3.587500 3.600000 0.0 
3.640000 3.600000 0.0 
3.692500 3.600000 0.0 
3.745000 3.600000 0.0 
3.797500 3.600000 0.0 
3.850000 3.600000 0.0 
[...]
<PointData  Vectors="sigma"> 
<DataArray  type="Float64"  Name="sigma" NumberOfComponents="4" format="ascii"> 
6.77106   27.0842   5.73354   26.3559   
3.6567   14.6268   2.71079   13.9955   
3.08961   12.3584   1.94982   11.6404   
2.77244   11.0898   1.63734   10.3907   
2.50962   10.0385   1.43612   9.38424   
2.28306   9.13222   1.28148   8.52567   
2.07436   8.29745   1.15875   7.74382   
1.88138   7.52554   1.05829   7.02672   
1.69824   6.79294   0.974401   6.35141   
1.52351   6.09405   0.902193   5.71104   
1.35469   5.41877   0.838588   5.0958   
1.1907   4.76281   0.781187   4.50131   
1.03021   4.12083   0.728476   3.92291   
0.872378   3.48951   0.679392   3.35832   
0.716375   2.8655   0.633346   2.80622   
0.561557   2.24623   0.590054   2.26804   
0.407334   1.62934   0.549519   1.75011   
0.364333   1.45733   0.538724   1.61129   
0.321328   1.28531   0.528167   1.4762   
0.278312   1.11325   0.517857   1.34591   
0.235275   0.9411   0.507804   1.22197   
0.192208   0.768832   0.498018   1.1065   
0.149103   0.596411   0.488511   1.00247   
0.105951   0.423804   0.479296   0.913841   
0.0627455   0.250982   0.470385   0.845557   
0.0194787   0.0779149   0.461792   0.802925   
-0.0238564   -0.0954256   0.453534   0.790239   
-0.0672667   -0.269067   0.445625   0.809053   
-0.110758   -0.443034   0.438081   0.85745   
-0.154338   -0.617353   0.430919   0.930988   
-0.198012   -0.792046   0.424158   1.02442   
-0.241785   -0.967141   0.417815   1.133   
-0.285664   -1.14266   0.411909   1.25294   
-0.451235   -1.80494   0.393998   1.76428   
-0.618614   -2.47446   0.383622   2.32731   
-0.788054   -3.15222   0.381992   2.91739   
-0.959758   -3.83903   0.390459   3.52592   
-1.13405   -4.5362   0.410496   4.15024   
-1.31113   -5.24453   0.443843   4.78946   
-1.49167   -5.9667   0.492442   5.44552   
-1.67591   -6.70365   0.558885   6.11963   
-1.8656   -7.4624   0.64616   6.81899   
-2.06095   -8.24382   0.758915   7.54624   
-2.26704   -9.06817   0.902424   8.32204   
-2.48389   -9.93556   1.08602   9.1512   
-2.72862   -10.9145   1.32291   10.1015   
-3.01183   -12.0473   1.67052   11.2382   
-3.5093   -14.0372   2.43778   13.3389   
-6.40078   -25.6031   5.40922   24.9076   
0.53514   14.1096   0.40462   13.8675   
0.157003   13.7478   0.834797   13.7462   
0.698585   12.6681   1.39797   12.5691   
1.08026   11.4881   1.56873   11.3188   
1.26776   10.4022   1.56928   10.1987   
1.33301   9.43053   1.51518   9.22107   
1.32291   8.54923   1.4442   8.35385   
1.26818   7.73728   1.37293   7.57076   
1.18467   6.9769   1.30505   6.85016   
1.08299   6.25591   1.24201   6.17754   
0.96908   5.56474   1.18324   5.54193   
0.847266   4.89628   1.12824   4.93576   
0.720245   4.24472   1.07631   4.35368   
0.590088   3.6054   1.02705   3.79263   
0.458221   2.97436   0.980183   3.2521   
0.325778   2.34828   0.935681   2.73533   
0.193602   1.7243   0.89368   2.2523   
0.156863   1.55019   0.882443   2.12618   
0.12021   1.37601   0.871434   2.00515   
0.0836584   1.2017   0.860661   1.89018   
0.0472183   1.02723   0.850136   1.78245   
0.010902   0.85254   0.839869   1.68339   
-0.0252808   0.677598   0.829874   1.59467   
-0.0613196   0.502364   0.820162   1.5182   
-0.0972048   0.3268   0.810747   1.456   
-0.132927   0.150871   0.801645   1.4101   
-0.168477   -0.0254592   0.792868   1.38227   
-0.203846   -0.202222   0.784434   1.37377   
-0.239025   -0.379451   0.776358   1.38514   
-0.274006   -0.557175   0.768655   1.4161   
-0.30878   -0.735423   0.761345   1.46562   
-0.343342   -0.914226   0.754443   1.53211   
-0.377677   -1.09361   0.747968   1.61368   
-0.504311   -1.7719   0.727811   2.02225   
-0.627217   -2.45998   0.714945   2.53681   
-0.745873   -3.15906   0.710457   3.11352   
-0.859561   -3.87034   0.715478   3.73193   
-0.967391   -4.59518   0.731197   4.38294   
-1.06792   -5.33529   0.758771   5.06313   
-1.15925   -6.09309   0.799429   5.77264   
-1.23796   -6.87193   0.854043   6.51437   
-1.29936   -7.67729   0.923483   7.29466   
-1.33429   -8.51681   1.00655   8.12354   
-1.32917   -9.40355   1.10049   9.01819   
-1.25586   -10.3537   1.19053   10.0013   
-1.07113   -11.3886   1.24424   11.1038   
-0.70197   -12.4911   1.15471   12.3187   
-0.167647   -13.4821   0.706886   13.4549   
-0.503149   -13.7413   0.374612   13.5123   
-0.279857   12.8251   -0.204659   12.9721   
0.0918208   12.4545   0.399674   12.4281   
0.174078   11.8031   0.734305   11.7858   
0.316499   11.0403   1.02373   11.029   
0.463862   10.2194   1.22541   10.2184   
0.573596   9.38947   1.34584   9.40953   
0.63808   8.5826   1.41039   8.63477   
0.659586   7.80765   1.43741   7.90209   
0.646151   7.06627   1.44069   7.21184   
0.604982   6.35463   1.42829   6.55919   
0.542909   5.66829   1.40555   5.93916   
0.465261   5.00214   1.37562   5.34673   
0.376503   4.35153   1.34066   4.77821   
0.28015   3.71212   1.30209   4.23139   
0.179099   3.08005   1.26105   3.70647   
0.0756967   2.45188   1.21847   3.20716   
-0.0280959   1.82457   1.17524   2.74311   
-0.0569025   1.64929   1.16317   2.62224   
-0.0855791   1.47382   1.15113   2.50617   
-0.114095   1.2981   1.13915   2.39566   
-0.14242   1.12209   1.12724   2.29154   
-0.170528   0.945746   1.11541   2.19482   
-0.19839   0.769012   1.1037   2.1066   
-0.225982   0.591851   1.09211   2.02811   
-0.253277   0.414221   1.08067   1.96066   
-0.280252   0.236084   1.0694   1.90559   
-0.306883   0.0574013   1.05831   1.86417   
-0.333147   -0.121862   1.04742   1.83753   
-0.359023   -0.301741   1.03676   1.82654   
-0.384488   -0.482267   1.02635   1.83171   
-0.409522   -0.663473   1.01619   1.85314   
-0.434103   -0.845387   1.00632   1.89054   
-0.458212   -1.02804   0.99674   1.94325   
-0.544062   -1.71998   0.963813   2.25951   
-0.6219   -2.42393   0.936277   2.71746   
-0.690576   -3.14096   0.914929   3.26875   
-0.748796   -3.87207   0.900379   3.88411   
-0.794942   -4.61816   0.892889   4.54752   
-0.827006   -5.38027   0.892265   5.25073   
-0.842207   -6.15935   0.897439   5.98963   
-0.837084   -6.95669   0.906242   6.7629   
-0.806707   -7.77285   0.914209   7.57   
-0.745787   -8.60816   0.914234   8.41096   
-0.647661   -9.45801   0.893307   9.28126   
-0.510849   -10.3122   0.833835   10.1696   
-0.341803   -11.1379   0.709634   11.0397   
-0.181941   -11.8863   0.511401   11.8296   
-0.0890515   -12.4989   0.277724   12.4639   
0.263242   -12.8263   -0.190165   12.9641   
0.141883   12.2846   0.0994947   12.2155   
-0.0181472   11.6949   0.240961   11.7115   
0.0322575   11.1091   0.531767   11.1312   
0.0868885   10.4606   0.788651   10.5066   
0.140707   9.77815   1.00738   9.8641   
0.18987   9.08129   1.18511   9.21928   
0.224395   8.38083   1.32034   8.58125   
0.240236   7.68768   1.41803   7.95888   
0.235521   7.0067   1.4837   7.35549   
0.211699   6.34034   1.52338   6.77233   
0.171102   5.68798   1.54192   6.2082   
0.116889   5.04793   1.54345   5.66144   
0.0521887   4.41747   1.53118   5.13028   
-0.0199178   3.79368   1.50774   4.61387   
-0.0966258   3.1735   1.4753   4.11298   
-0.175382   2.554   1.43573   3.6312   
-0.25392   1.93243   1.39068   3.1767   
-0.275519   1.75826   1.37733   3.05662   
-0.296904   1.58368   1.36371   2.94032   
-0.318034   1.40864   1.34984   2.82836   
-0.338872   1.23311   1.33575   2.72139   
-0.359381   1.05702   1.32148   2.62016   
-0.379527   0.880353   1.30704   2.52552   
-0.399276   0.703054   1.29248   2.43842   
-0.418594   0.525088   1.27781   2.3599   
-0.437452   0.346416   1.26307   2.29106   
-0.455819   0.167006   1.24828   2.23303   
-0.473665   -0.0131774   1.23347   2.18692   
-0.490962   -0.194164   1.21866   2.1538   
-0.507683   -0.375982   1.20389   2.13454   
-0.523799   -0.558661   1.18916   2.12983   
-0.539286   -0.742224   1.17452   2.14007   
-0.554119   -0.926696   1.15997   2.16538   
-0.603496   -1.6269   1.10665   2.38814   
-0.642108   -2.34103   1.05603   2.78121   
-0.668822   -3.06962   1.00882   3.29697   
-0.682529   -3.81278   0.965353   3.89828   
-0.682153   -4.57028   0.925473   4.56121   
-0.666571   -5.3413   0.888295   5.27074   
-0.6348   -6.12454   0.852097   6.01692   
-0.585899   -6.91747   0.81392   6.79184   
-0.519802   -7.71652   0.769689   7.58822   
-0.437147   -8.51509   0.713634   8.39663   
-0.341867   -9.30456   0.639914   9.2054   
-0.239756   -10.0701   0.542321   9.99666   
-0.143131   -10.7979   0.420734   10.7518   
-0.0579662   -11.4658   0.27612   11.447   
0.00959086   -12.0477   0.111237   12.054   
-0.133387   -12.6   0.0924326   12.5348   
-0.0788102   11.6542   -0.0533582   11.6942   
0.0137968   11.0829   0.254628   11.0848   
0.000363534   10.4893   0.489794   10.5233   
-0.00184192   9.89599   0.726853   9.97666   
0.00109542   9.29206   0.946546   9.43504   
0.0011244   8.67873   1.13872   8.89948   
-0.0040741   8.063   1.3009   8.37389   
-0.0178739   7.44807   1.43178   7.85858   
-0.0413676   6.83726   1.53266   7.35389   
-0.0751625   6.23159   1.60548   6.85853   
-0.11848   5.63136   1.65296   6.37105   
-0.170014   5.03555   1.67783   5.88958   
-0.227866   4.44256   1.68286   5.41264   
-0.289948   3.85025   1.67061   4.93939   
-0.354042   3.25626   1.64348   4.4704   
-0.417971   2.65818   1.60372   4.00841   
-0.479638   2.05363   1.55345   3.55979   
-0.496177   1.88347   1.53782   3.43844   
-0.512349   1.71258   1.52157   3.3194   
-0.528113   1.54094   1.50474   3.20311   
-0.543435   1.36849   1.48738   3.09009   
-0.558276   1.1952   1.46951   2.98091   
-0.572603   1.02103   1.45119   2.87626   
-0.58638   0.845943   1.43245   2.77691   
-0.599576   0.66991   1.41333   2.68373   
-0.612158   0.492898   1.39386   2.59768   
-0.624095   0.314878   1.37409   2.51982   
-0.635359   0.135823   1.35404   2.45127   
-0.645921   -0.0442905   1.33376   2.39318   
-0.655757   -0.225485   1.31328   2.34672   
-0.664841   -0.407779   1.29263   2.31298   
-0.673148   -0.59119   1.27184   2.29291   
-0.68066   -0.775733   1.25096   2.28729   
-0.701375   -1.47801   1.17219   2.4004   
-0.709641   -2.1966   1.09379   2.71274   
-0.704765   -2.93122   1.01684   3.18195   
-0.686349   -3.68099   0.942088   3.76256   
-0.65429   -4.44432   0.869755   4.42059   
-0.608903   -5.21892   0.799568   5.13303   
-0.550916   -6.0015   0.73061   5.88358   
-0.481847   -6.78788   0.661486   6.65954   
-0.403832   -7.5723   0.590192   7.44915   
-0.320545   -8.3482   0.514898   8.24103   
-0.236099   -9.10657   0.433622   9.02216   
-0.157063   -9.83891   0.346364   9.77974   
-0.0884661   -10.5329   0.253263   10.4981   
-0.0409556   -11.1826   0.161146   11.1656   
-0.0225674   -11.7922   0.0842766   11.7818   
0.0740078   -12.3432   -0.0494624   12.3807   
0.0456896   11.0882   0.030093   11.0656   
-0.0146729   10.4881   0.254828   10.5047   
-0.0225733   9.91365   0.516084   9.96513   
-0.0431429   9.34737   0.758713   9.46073   
-0.0711681   8.78999   0.982558   8.98837   
-0.10307   8.23948   1.18456   8.54157   
-0.140121   7.69232   1.36025   8.11296   
-0.182165   7.14837   1.50792   7.69779   
-0.229774   6.60663   1.62663   7.29083   
-0.282561   6.06666   1.71686   6.88776   
-0.340017   5.5272   1.7796   6.48428   
-0.401028   4.98685   1.81649   6.07686   
-0.464235   4.4437   1.82938   5.66258   
-0.527967   3.89565   1.8204   5.23958   
-0.590427   3.34041   1.79174   4.80731   
-0.649738   2.77569   1.74568   4.36718   
-0.704056   2.19924   1.68453   3.92347   
-0.71808   2.03599   1.66508   3.80005   
-0.731541   1.87163   1.64469   3.67728   
-0.744401   1.70611   1.62341   3.55548   
-0.756625   1.5394   1.60129   3.43503   
-0.76818   1.37146   1.57838   3.31638   
-0.779034   1.20227   1.55472   3.20007   
-0.789156   1.03177   1.53037   3.0867   
-0.798516   0.859962   1.50538   2.97698   
-0.807088   0.686805   1.4798   2.87173   
-0.814845   0.512277   1.45367   2.77188   
-0.821763   0.336359   1.42705   2.67847   
-0.827818   0.159033   1.39997   2.59268   
-0.832988   -0.0197156   1.37249   2.51576   
-0.837252   -0.199899   1.34466   2.44907   
-0.840591   -0.381525   1.31652   2.39397   
-0.84299   -0.564601   1.28811   2.35183   
-0.843362   -1.26404   1.17994   2.32804   
-0.829782   -1.98354   1.07081   2.53316   
-0.802129   -2.72207   0.962622   2.94101   
-0.760704   -3.47787   0.856977   3.4974   
-0.706299   -4.24838   0.755117   4.15422   
-0.640201   -5.03016   0.65788   4.87754   
-0.564328   -5.81901   0.565774   5.64409   
-0.481105   -6.60968   0.478908   6.43642   
-0.393806   -7.39639   0.397327   7.24035   
-0.305965   -8.17216   0.320795   8.04277   
-0.222269   -8.93042   0.249704   8.83198   
-0.146604   -9.66343   0.184179   9.59627   
-0.0845399   -10.3671   0.126287   10.3274   
-0.0365532   -11.0358   0.0756268   11.0184   
-0.00165026   -11.664   0.028225   11.6632   
-0.0428412   -12.2583   0.0278466   12.2371   
-0.026823   10.4052   -0.0172661   10.4186   
-0.00414857   9.83038   0.298245   9.84601   
-0.0330664   9.28514   0.575727   9.35502   
-0.0702823   8.76517   0.838723   8.91961   
-0.115909   8.26239   1.08015   8.52868   
-0.17003   7.77173   1.2959   8.17241   
-0.230271   7.29077   1.48435   7.84201   
-0.295947   6.81584   1.64358   7.52758   
-0.365787   6.34445   1.77287   7.22051   
-0.438963   5.87382   1.87188   6.91264   
-0.514258   5.40151   1.94105   6.59709   
-0.59042   4.92488   1.98124   6.26791   
-0.665922   4.44131   1.9938   5.92048   
-0.73912   3.94808   1.98039   5.55135   
-0.808226   3.44248   1.94296   5.15863   
-0.871408   2.92184   1.88375   4.74217   
-0.926833   2.38368   1.80519   4.30422   
-0.940678   2.23006   1.78016   4.17884   
-0.95375   2.07485   1.75389   4.05239   
-0.966012   1.91802   1.72642   3.9251   
-0.977433   1.75952   1.69784   3.79724   
-0.98798   1.59931   1.66818   3.66913   
-0.997625   1.43737   1.63753   3.54115   
-1.00633   1.27366   1.60593   3.41374   
-1.01408   1.10814   1.57345   3.28745   
-1.02084   0.940806   1.54015   3.16289   
-1.02659   0.771623   1.50611   3.0408   
-1.03129   0.600576   1.47137   2.92205   
-1.03495   0.427649   1.436   2.80765   
-1.03752   0.252831   1.40007   2.69876   
-1.03901   0.0761147   1.36364   2.59673   
-1.03939   -0.102504   1.32677   2.50306   
-1.03867   -0.283027   1.28953   2.41943   
-1.02589   -0.976811   1.14758   2.22605   
-0.997179   -1.69648   1.00437   2.28189   
-0.95285   -2.44044   0.862914   2.60234   
-0.893774   -3.20625   0.725948   3.12957   
-0.821354   -3.99054   0.595916   3.79298   
-0.737575   -4.78914   0.474948   4.54139   
-0.644907   -5.59697   0.364794   5.34151   
-0.54644   -6.40835   0.266947   6.17071   
-0.445558   -7.21675   0.182488   7.01174   
-0.346317   -8.01558   0.112447   7.85057   
-0.252475   -8.7974   0.0572598   8.67449   
-0.168649   -9.55586   0.0176134   9.47271   
-0.0976813   -10.283   -0.00736514   10.2345   
-0.044998   -10.9735   -0.0173539   10.9511   
-0.0155496   -11.6238   -0.0110922   11.6161   
0.0251012   -12.2302   -0.0159065   12.2428   
0.0157795   9.6315   0.00996891   9.62364   
-0.0136133   9.096   0.34047   9.1219   
-0.0415725   8.5983   0.66107   8.69488   
-0.0878187   8.13165   0.95389   8.34118   
-0.147546   7.68997   1.21863   8.04656   
-0.216954   7.26758   1.45398   7.7964   
-0.294715   6.85836   1.65784   7.57566   
-0.378688   6.45812   1.82932   7.37127   
-0.467482   6.06246   1.96757   7.17078   
-0.559396   5.66769   2.07244   6.96355   
-0.652917   5.26999   2.14399   6.74019   
-0.746312   4.8658   2.18283   6.49298   
-0.837788   4.45147   2.1899   6.21562   
-0.925385   4.02342   2.16659   5.90337   
-1.00707   3.57812   2.11466   5.553   
-1.08074   3.11217   2.0363   5.16301   
-1.14436   2.62237   1.93409   4.73386   
-1.16005   2.48103   1.9017   4.60746   
-1.17476   2.33756   1.86774   4.47835   
-1.18845   2.19189   1.83229   4.34668   
-1.20109   2.04398   1.79543   4.21262   
-1.21263   1.89379   1.75721   4.07637   
-1.22305   1.74127   1.71774   3.9382   
-1.23231   1.58638   1.67706   3.79839   
-1.24039   1.42909   1.63528   3.65731   
-1.24725   1.26937   1.59246   3.51539   
-1.25287   1.10718   1.54869   3.37314   
-1.25724   0.942504   1.50406   3.23117   
-1.26033   0.775328   1.45863   3.09023   
-1.26213   0.605635   1.4125   2.9512   
-1.26261   0.433418   1.36574   2.81514   
-1.26176   0.258673   1.31846   2.68334   
-1.25958   0.0814022   1.27072   2.55731   
-1.2394   -0.605697   1.0891   2.17042   
-1.20043   -1.32719   0.906758   2.01889   
-1.14337   -2.08104   0.727984   2.20193   
-1.06949   -2.86416   0.556838   2.68593   
-0.980703   -3.67245   0.397075   3.36454   
-0.879454   -4.50087   0.252054   4.15495   
-0.768772   -5.34356   0.124743   5.00833   
-0.652062   -6.19379   0.0175991   5.89495   
-0.533256   -7.04441   -0.0673051   6.79449   
-0.41634   -7.88747   -0.128574   7.69099   
-0.305913   -8.71522   -0.165097   8.57113   
-0.206003   -9.51899   -0.176848   9.42266   
-0.121867   -10.2916   -0.163696   10.2352   
-0.0564876   -11.0248   -0.127714   10.9989   
-0.0125623   -11.7113   -0.073131   11.7057   
-0.0147368   -12.3416   0.00917944   12.3343   
-0.00925797   8.71496   -0.00578591   8.71959   
-0.0112796   8.24267   0.397487   8.277   
-0.0472833   7.81584   0.760596   7.9495   
-0.0999539   7.42404   1.09069   7.70956   
-0.167055   7.05998   1.38587   7.5374   
-0.24667   6.71692   1.64506   7.41305   
-0.335927   6.38972   1.8681   7.31828   
-0.43315   6.07288   2.05429   7.2359   
-0.536388   5.76178   2.20334   7.15125   
-0.644021   5.45172   2.3149   7.05148   
-0.754182   5.13828   2.38896   6.92584   
-0.864951   4.8169   2.42572   6.76531   
-0.974151   4.48302   2.42577   6.56252   
-1.07944   4.13198   2.39012   6.31163   
-1.17827   3.7591   2.32032   6.00833   
-1.268   3.35981   2.21847   5.64988   
-1.34598   2.92976   2.08732   5.23538   
-1.36529   2.80371   2.04593   5.10981   
-1.38345   2.67487   2.0026   4.98002   
-1.40039   2.54317   1.9574   4.84609   
-1.41607   2.40854   1.91044   4.70811   
-1.43045   2.27091   1.86179   4.56622   
-1.44349   2.1302   1.81155   4.42058   
-1.45513   1.98638   1.75983   4.27136   
-1.46535   1.83938   1.70671   4.11879   
-1.47409   1.68916   1.6523   3.96314   
-1.48133   1.53569   1.59672   3.80474   
-1.48704   1.37892   1.54005   3.64397   
-1.49119   1.21883   1.48242   3.4813   
-1.49376   1.0554   1.42393   3.31729   
-1.49474   0.888601   1.3647   3.15266   
-1.4941   0.718435   1.30483   2.98825   
-1.49185   0.544893   1.24445   2.82514   
-1.46898   -0.135783   1.01535   2.25159   
-1.4235   -0.862602   0.786572   1.84353   
-1.35635   -1.63308   0.564002   1.80164   
-1.26925   -2.44344   0.353246   2.20327   
-1.16462   -3.28867   0.15948   2.90137   
-1.04551   -4.16266   -0.0126363   3.75089   
-0.915458   -5.05827   -0.159066   4.67648   
-0.778486   -5.96764   -0.276356   5.63934   
-0.638857   -6.88208   -0.361788   6.61567   
-0.501311   -7.79253   -0.4132   7.58819   
-0.370486   -8.68914   -0.429376   8.54238   
-0.251721   -9.56222   -0.409585   9.4655   
-0.149537   -10.4008   -0.354714   10.3451   
-0.0700729   -11.1944   -0.265971   11.1691   
-0.019462   -11.9318   -0.145586   11.9247   
0.00862702   -12.6045   -0.00527256   12.6089   
0.00542808   7.65065   0.00334588   7.64794   
-0.0134341   7.27082   0.456098   7.3203   
-0.0480854   6.93417   0.869034   7.11928   
-0.101917   6.63363   1.23871   7.02102   
-0.171241   6.36116   1.56653   6.99607   
-0.253198   6.11056   1.85338   7.01821   
-0.346445   5.8759   2.09932   7.06423   
-0.449294   5.65246   2.30453   7.11508   
-0.560516   5.43544   2.46869   7.15458   
-0.678593   5.22028   2.59139   7.16938   
-0.801912   5.00212   2.67207   7.14811   
-0.92844   4.77587   2.71033   7.08116   
-1.05577   4.536   2.70601   6.96034   
-1.18103   4.27661   2.65943   6.77884   
-1.30098   3.9915   2.57158   6.5312   