<VTKFile type="UnstructuredGrid"  version="0.1"   > 
<UnstructuredGrid> 
<Piece  NumberOfPoints="  512" NumberOfCells=" 225"> 
<Points> 
<DataArray  type="Float64"  NumberOfComponents="3"  format="ascii" > 
0.000000 0.000000 0.000000 
0.666667 0.000000 0.000000 
1.333333 0.000000 0.000000 
2.000000 0.000000 0.000000 
2.666667 0.000000 0.000000 
3.333333 0.000000 0.000000 
4.000000 0.000000 0.000000 
4.666667 0.000000 0.000000 
5.333333 0.000000 0.000000 
6.000000 0.000000 0.000000 
6.666667 0.000000 0.000000 
7.333333 0.000000 0.000000 
8.000000 0.000000 0.000000 
8.666667 0.000000 0.000000 
9.333333 0.000000 0.000000 
10.000000 0.000000 0.000000 
0.000000 2.000000 0.000000 
0.666667 2.000000 0.000000 
1.333333 2.000000 0.000000 
2.000000 2.000000 0.000000 
2.666667 2.000000 0.000000 
3.333333 2.000000 0.000000 
4.000000 2.000000 0.000000 
4.666667 2.000000 0.000000 
5.333333 2.000000 0.000000 
6.000000 2.000000 0.000000 
6.666667 2.000000 0.000000 
7.333333 2.000000 0.000000 
8.000000 2.000000 0.000000 
8.666667 2.000000 0.000000 
9.333333 2.000000 0.000000 
10.000000 2.000000 0.000000 
0.000000 0.000000 0.666667 
0.666667 0.000000 0.666667 
1.333333 0.000000 0.666667 
2.000000 0.000000 0.666667 
2.666667 0.000000 0.666667 
3.333333 0.000000 0.666667 
4.000000 0.000000 0.666667 
4.666667 0.000000 0.666667 
5.333333 0.000000 0.666667 
6.000000 0.000000 0.666667 
6.666667 0.000000 0.666667 
7.333333 0.000000 0.666667 
8.000000 0.000000 0.666667 
8.666667 0.000000 0.666667 
9.333333 0.000000 0.666667 
10.000000 0.000000 0.666667 
0.000000 2.000000 0.666667 
0.666667 2.000000 0.666667 
1.333333 2.000000 0.666667 
2.000000 2.000000 0.666667 
2.666667 2.000000 0.666667 
3.333333 2.000000 0.666667 
4.000000 2.000000 0.666667 
4.666667 2.000000 0.666667 
5.333333 2.000000 0.666667 
6.000000 2.000000 0.666667 
6.666667 2.000000 0.666667 
7.333333 2.000000 0.666667 
8.000000 2.000000 0.666667 
8.666667 2.000000 0.666667 
9.333333 2.000000 0.666667 
10.000000 2.000000 0.666667 
0.000000 0.000000 1.333333 
0.666667 0.000000 1.333333 
1.333333 0.000000 1.333333 
2.000000 0.000000 1.333333 
2.666667 0.000000 1.333333 
3.333333 0.000000 1.333333 
4.000000 0.000000 1.333333 
4.666667 0.000000 1.333333 
5.333333 0.000000 1.333333 
6.000000 0.000000 1.333333 
6.666667 0.000000 1.333333 
7.333333 0.000000 1.333333 
8.000000 0.000000 1.333333 
8.666667 0.000000 1.333333 
9.333333 0.000000 1.333333 
10.000000 0.000000 1.333333 
0.000000 2.000000 1.333333 
0.666667 2.000000 1.333333 
1.333333 2.000000 1.333333 
2.000000 2.000000 1.333333 
2.666667 2.000000 1.333333 
3.333333 2.000000 1.333333 
4.000000 2.000000 1.333333 
4.666667 2.000000 1.333333 
5.333333 2.000000 1.333333 
6.000000 2.000000 1.333333 
6.666667 2.000000 1.333333 
7.333333 2.000000 1.333333 
8.000000 2.000000 1.333333 
8.666667 2.000000 1.333333 
9.333333 2.000000 1.333333 
10.000000 2.000000 1.333333 
0.000000 0.000000 2.000000 
0.666667 0.000000 2.000000 
1.333333 0.000000 2.000000 
2.000000 0.000000 2.000000 
2.666667 0.000000 2.000000 
3.333333 0.000000 2.000000 
4.000000 0.000000 2.000000 
4.666667 0.000000 2.000000 
5.333333 0.000000 2.000000 
6.000000 0.000000 2.000000 
6.666667 0.000000 2.000000 
7.333333 0.000000 2.000000 
8.000000 0.000000 2.000000 
8.666667 0.000000 2.000000 
9.333333 0.000000 2.000000 
10.000000 0.000000 2.000000 
0.000000 2.000000 2.000000 
0.666667 2.000000 2.000000 
1.333333 2.000000 2.000000 
2.000000 2.000000 2.000000 
2.666667 2.000000 2.000000 
3.333333 2.000000 2.000000 
4.000000 2.000000 2.000000 
4.666667 2.000000 2.000000 
5.333333 2.000000 2.000000 
6.000000 2.000000 2.000000 
6.666667 2.000000 2.000000 
7.333333 2.000000 2.000000 
8.000000 2.000000 2.000000 
8.666667 2.000000 2.000000 
9.333333 2.000000 2.000000 
10.000000 2.000000 2.000000 
0.000000 0.000000 2.666667 
0.666667 0.000000 2.666667 
1.333333 0.000000 2.666667 
2.000000 0.000000 2.666667 
2.666667 0.000000 2.666667 
3.333333 0.000000 2.666667 
4.000000 0.000000 2.666667 
4.666667 0.000000 2.666667 
5.333333 0.000000 2.666667 
6.000000 0.000000 2.666667 
6.666667 0.000000 2.666667 
7.333333 0.000000 2.666667 
8.000000 0.000000 2.666667 
8.666667 0.000000 2.666667 
9.333333 0.000000 2.666667 
10.000000 0.000000 2.666667 
0.000000 2.000000 2.666667 
0.666667 2.000000 2.666667 
1.333333 2.000000 2.666667 
2.000000 2.000000 2.666667 
2.666667 2.000000 2.666667 
3.333333 2.000000 2.666667 
4.000000 2.000000 2.666667 
4.666667 2.000000 2.666667 
5.333333 2.000000 2.666667 
6.000000 2.000000 2.666667 
6.666667 2.000000 2.666667 
7.333333 2.000000 2.666667 
8.000000 2.000000 2.666667 
8.666667 2.000000 2.666667 
9.333333 2.000000 2.666667 
10.000000 2.000000 2.666667 
0.000000 0.000000 3.333333 
0.666667 0.000000 3.333333 
1.333333 0.000000 3.333333 
2.000000 0.000000 3.333333 
2.666667 0.000000 3.333333 
3.333333 0.000000 3.333333 
4.000000 0.000000 3.333333 
4.666667 0.000000 3.333333 
5.333333 0.000000 3.333333 
6.000000 0.000000 3.333333 
6.666667 0.000000 3.333333 
7.333333 0.000000 3.333333 
8.000000 0.000000 3.333333 
8.666667 0.000000 3.333333 
9.333333 0.000000 3.333333 
10.000000 0.000000 3.333333 
0.000000 2.000000 3.333333 
0.666667 2.000000 3.333333 
1.333333 2.000000 3.333333 
2.000000 2.000000 3.333333 
2.666667 2.000000 3.333333 
3.333333 2.000000 3.333333 
4.000000 2.000000 3.333333 
4.666667 2.000000 3.333333 
5.333333 2.000000 3.333333 
6.000000 2.000000 3.333333 
6.666667 2.000000 3.333333 
7.333333 2.000000 3.333333 
8.000000 2.000000 3.333333 
8.666667 2.000000 3.333333 
9.333333 2.000000 3.333333 
10.000000 2.000000 3.333333 
0.000000 0.000000 4.000000 
0.666667 0.000000 4.000000 
1.333333 0.000000 4.000000 
2.000000 0.000000 4.000000 
2.666667 0.000000 4.000000 
3.333333 0.000000 4.000000 
4.000000 0.000000 4.000000 
4.666667 0.000000 4.000000 
5.333333 0.000000 4.000000 
6.000000 0.000000 4.000000 
6.666667 0.000000 4.000000 
7.333333 0.000000 4.000000 
8.000000 0.000000 4.000000 
8.666667 0.000000 4.000000 
9.333333 0.000000 4.000000 
10.000000 0.000000 4.000000 
0.000000 2.000000 4.000000 
0.666667 2.000000 4.000000 
1.333333 2.000000 4.000000 
2.000000 2.000000 4.000000 
2.666667 2.000000 4.000000 
3.333333 2.000000 4.000000 
4.000000 2.000000 4.000000 
4.666667 2.000000 4.000000 
5.333333 2.000000 4.000000 
6.000000 2.000000 4.000000 
6.666667 2.000000 4.000000 
7.333333 2.000000 4.000000 
8.000000 2.000000 4.000000 
8.666667 2.000000 4.000000 
9.333333 2.000000 4.000000 
10.000000 2.000000 4.000000 
0.000000 0.000000 4.666667 
0.666667 0.000000 4.666667 
1.333333 0.000000 4.666667 
2.000000 0.000000 4.666667 
2.666667 0.000000 4.666667 
3.333333 0.000000 4.666667 
4.000000 0.000000 4.666667 
4.666667 0.000000 4.666667 
5.333333 0.000000 4.666667 
6.000000 0.000000 4.666667 
6.666667 0.000000 4.666667 
7.333333 0.000000 4.666667 
8.000000 0.000000 4.666667 
8.666667 0.000000 4.666667 
9.333333 0.000000 4.666667 
10.000000 0.000000 4.666667 
0.000000 2.000000 4.666667 
0.666667 2.000000 4.666667 
1.333333 2.000000 4.666667 
2.000000 2.000000 4.666667 
2.666667 2.000000 4.666667 
3.333333 2.000000 4.666667 
4.000000 2.000000 4.666667 
4.666667 2.000000 4.666667 
5.333333 2.000000 4.666667 
6.000000 2.000000 4.666667 
6.666667 2.000000 4.666667 
7.333333 2.000000 4.666667 
8.000000 2.000000 4.666667 
8.666667 2.000000 4.666667 
9.333333 2.000000 4.666667 
10.000000 2.000000 4.666667 
0.000000 0.000000 5.333333 
0.666667 0.000000 5.333333 
1.333333 0.000000 5.333333 
2.000000 0.000000 5.333333 
2.666667 0.000000 5.333333 
3.333333 0.000000 5.333333 
4.000000 0.000000 5.333333 
4.666667 0.000000 5.333333 
5.333333 0.000000 5.333333 
6.000000 0.000000 5.333333 
6.666667 0.000000 5.333333 
7.333333 0.000000 5.333333 
8.000000 0.000000 5.333333 
8.666667 0.000000 5.333333 
9.333333 0.000000 5.333333 
10.000000 0.000000 5.333333 
0.000000 2.000000 5.333333 
0.666667 2.000000 5.333333 
1.333333 2.000000 5.333333 
2.000000 2.000000 5.333333 
2.666667 2.000000 5.333333 
3.333333 2.000000 5.333333 
4.000000 2.000000 5.333333 
4.666667 2.000000 5.333333 
5.333333 2.000000 5.333333 
6.000000 2.000000 5.333333 
6.666667 2.000000 5.333333 
7.333333 2.000000 5.333333 
8.000000 2.000000 5.333333 
8.666667 2.000000 5.333333 
9.333333 2.000000 5.333333 
10.000000 2.000000 5.333333 
0.000000 0.000000 6.000000 
0.666667 0.000000 6.000000 
1.333333 0.000000 6.000000 
2.000000 0.000000 6.000000 
2.666667 0.000000 6.000000 
3.333333 0.000000 6.000000 
4.000000 0.000000 6.000000 
4.666667 0.000000 6.000000 
5.333333 0.000000 6.000000 
6.000000 0.000000 6.000000 
6.666667 0.000000 6.000000 
7.333333 0.000000 6.000000 
8.000000 0.000000 6.000000 
8.666667 0.000000 6.000000 
9.333333 0.000000 6.000000 
10.000000 0.000000 6.000000 
0.000000 2.000000 6.000000 
0.666667 2.000000 6.000000 
1.333333 2.000000 6.000000 
2.000000 2.000000 6.000000 
2.666667 2.000000 6.000000 
3.333333 2.000000 6.000000 
4.000000 2.000000 6.000000 
4.666667 2.000000 6.000000 
5.333333 2.000000 6.000000 
6.000000 2.000000 6.000000 
6.666667 2.000000 6.000000 
7.333333 2.000000 6.000000 
8.000000 2.000000 6.000000 
8.666667 2.000000 6.000000 
9.333333 2.000000 6.000000 
10.000000 2.000000 6.000000 
0.000000 0.000000 6.666667 
0.666667 0.000000 6.666667 
1.333333 0.000000 6.666667 
2.000000 0.000000 6.666667 
2.666667 0.000000 6.666667 
3.333333 0.000000 6.666667 
4.000000 0.000000 6.666667 
4.666667 0.000000 6.666667 
5.333333 0.000000 6.666667 
6.000000 0.000000 6.666667 
6.666667 0.000000 6.666667 
7.333333 0.000000 6.666667 
8.000000 0.000000 6.666667 
8.666667 0.000000 6.666667 
9.333333 0.000000 6.666667 
10.000000 0.000000 6.666667 
0.000000 2.000000 6.666667 
0.666667 2.000000 6.666667 
1.333333 2.000000 6.666667 
2.000000 2.000000 6.666667 
2.666667 2.000000 6.666667 
3.333333 2.000000 6.666667 
4.000000 2.000000 6.666667 
4.666667 2.000000 6.666667 
5.333333 2.000000 6.666667 
6.000000 2.000000 6.666667 
6.666667 2.000000 6.666667 
7.333333 2.000000 6.666667 
8.000000 2.000000 6.666667 
[...]
<PointData  Vectors="sigma"> 
<DataArray  type="Float64"  Name="sigma" NumberOfComponents="6" format="ascii"> 
6.646899   6.646899   15.509432   0.000000   2.401530   8.590782   
4.142328   4.142328   9.665432   0.000000   2.692263   7.560311   
4.819502   4.819502   11.245504   0.000000   3.608820   8.209219   
6.233405   6.233405   14.544611   0.000000   4.668968   8.879333   
7.806502   7.806502   18.215172   0.000000   5.704241   9.025509   
9.207648   9.207648   21.484513   0.000000   6.550231   8.337147   
10.242289   10.242289   23.898675   0.000000   7.110277   6.664239   
10.819004   10.819004   25.244342   0.000000   7.358672   4.051870   
10.909802   10.909802   25.456204   0.000000   7.311616   0.725703   
10.503513   10.503513   24.508197   0.000000   6.988502   -2.944224   
9.585963   9.585963   22.367248   0.000000   6.391381   -6.481545   
8.170674   8.170674   19.064906   0.000000   5.520138   -9.363259   
6.385084   6.385084   14.898530   0.000000   4.421351   -11.127964   
4.617678   4.617678   10.774582   0.000000   3.242471   -11.538109   
3.768780   3.768780   8.793820   0.000000   2.202775   -10.952011   
7.458955   7.458955   17.404227   0.000000   1.933340   -11.765962   
4.142328   4.142328   9.665432   0.000000   -2.692263   7.560311   
6.646899   6.646899   15.509432   0.000000   -2.401530   8.590782   
4.142328   4.142328   9.665432   0.000000   -2.692263   7.560311   
4.819502   4.819502   11.245504   0.000000   -3.608820   8.209219   
6.233405   6.233405   14.544611   0.000000   -4.668968   8.879333   
7.806502   7.806502   18.215172   0.000000   -5.704241   9.025509   
9.207648   9.207648   21.484513   0.000000   -6.550231   8.337147   
10.242289   10.242289   23.898675   0.000000   -7.110277   6.664239   
10.819004   10.819004   25.244342   0.000000   -7.358672   4.051870   
10.909802   10.909802   25.456204   0.000000   -7.311616   0.725703   
10.503513   10.503513   24.508197   0.000000   -6.988502   -2.944224   
9.585963   9.585963   22.367248   0.000000   -6.391381   -6.481545   
8.170674   8.170674   19.064906   0.000000   -5.520138   -9.363259   
6.385084   6.385084   14.898530   0.000000   -4.421351   -11.127964   
4.617678   4.617678   10.774582   0.000000   -3.242471   -11.538109   
3.768780   3.768780   8.793820   0.000000   -2.202775   -10.952011   
3.642810   3.072261   13.535814   0.290733   2.401530   5.251353   
0.992872   0.228501   7.546447   0.290733   2.692263   4.220882   
4.150681   1.095892   9.927775   0.916558   3.608820   9.112118   
5.071621   1.288861   12.712713   1.060148   4.668968   10.764538   
5.210189   1.261186   15.472683   1.035274   5.704241   11.122972   
4.727900   1.049441   17.693126   0.845989   6.550231   10.205342   
3.759562   0.692285   19.088855   0.560046   7.110277   8.043760   
2.568022   0.274609   19.605729   0.248396   7.358672   4.820823   
1.433202   -0.115042   19.305771   -0.047057   7.311616   0.846767   
0.586889   -0.402185   18.261500   -0.323114   6.988502   -3.485943   
0.199961   -0.523638   16.518567   -0.597122   6.391381   -7.704945   
0.367606   -0.430772   14.143552   -0.871243   5.520138   -11.250312   
1.086175   -0.096687   11.364325   -1.098787   4.421351   -13.508750   
2.278688   0.527187   8.845738   -1.178880   3.242471   -13.894651   
3.693065   1.638450   8.132007   -1.039696   2.202775   -12.083875   
5.067871   4.592928   15.827094   -0.269435   1.933340   -6.845729   
0.992872   0.228501   7.546447   -0.290733   -2.692263   4.220882   
3.642810   3.072261   13.535814   -0.290733   -2.401530   5.251353   
3.931786   1.488036   8.805981   -0.916558   -2.692263   8.463209   
4.187791   1.111797   9.943679   -1.060148   -3.608820   10.094424   
4.154728   0.895907   12.319759   -1.035274   -4.668968   10.976797   
3.749748   0.635282   14.846780   -0.845989   -5.704241   10.893704   
3.004944   0.311032   16.954717   -0.560046   -6.550231   9.716668   
2.115505   -0.012311   18.384259   -0.248396   -7.110277   7.433192   
1.318876   -0.260739   19.070381   0.047057   -7.358672   4.172934   
0.831621   -0.372862   19.047951   0.323114   -7.311616   0.183985   
0.818950   -0.302731   18.360955   0.597122   -6.988502   -4.167624   
1.347274   -0.031933   17.010272   0.871243   -6.391381   -8.368598   
2.322371   0.406985   14.981308   1.098787   -5.520138   -11.744045   
3.456654   0.919232   12.380245   1.178880   -4.421351   -13.484506   
4.022115   1.274370   9.592921   1.039696   -3.242471   -12.669973   
1.242979   0.588413   7.081970   0.269435   -2.202775   -6.031778   
1.269854   0.208844   3.399030   0.966047   -1.026351   3.721197   
2.628330   0.923288   7.212839   0.966047   -0.351037   4.895893   
3.257530   0.314912   8.915321   1.509093   0.241499   7.714514   
5.386837   0.734318   12.834627   1.609821   0.791172   10.161022   
6.245040   0.938024   17.030723   1.514519   1.270417   11.440371   
5.690173   0.799986   20.761776   1.258725   1.683153   11.347962   
3.967145   0.340559   23.460529   0.867859   1.990965   9.640953   
1.687222   -0.291719   24.884647   0.433311   2.175881   6.453240   
-0.456598   -0.917784   25.014145   0.025118   2.248055   2.190887   
-1.909253   -1.382319   23.868576   -0.363384   2.207785   -2.637357   
-2.343562   -1.562424   21.429231   -0.786912   2.017995   -7.464958   
-1.717742   -1.381466   17.738522   -1.269722   1.619516   -11.633498   
-0.366751   -0.846334   13.121325   -1.748069   0.970234   -14.439095   
1.045623   -0.013000   8.389302   -2.110648   0.038466   -15.304681   
1.857319   1.133928   5.147854   -2.164448   -1.086286   -13.474192   
1.764235   0.842352   0.110848   -1.439366   -2.256217   -6.311449   
2.628330   0.923288   7.212839   -0.966047   0.351037   4.895893   
1.269854   0.208844   3.399030   -0.966047   1.026351   3.721197   
3.033479   1.096924   7.386474   -1.509093   0.351037   7.987684   
4.371733   0.792428   9.392837   -1.609821   -0.241499   9.818710   
4.765266   0.467930   12.568239   -1.514519   -0.791172   10.929304   
4.047079   -0.003959   16.088740   -1.258725   -1.270417   11.258335   
2.466368   -0.581645   19.380145   -0.867859   -1.683153   10.408954   
0.578237   -1.111830   22.008140   -0.433311   -1.990965   8.218298   
-0.998152   -1.442594   23.733772   -0.025118   -2.175881   4.776648   
-1.761861   -1.477183   24.454746   0.363384   -2.248055   0.350508   
-1.436044   -1.179515   24.071380   0.786912   -2.207785   -4.614891   
-0.083713   -0.593918   22.397738   1.269722   -2.017995   -9.419166   
1.749426   0.104464   19.224451   1.748069   -1.619516   -13.088994   
3.108992   0.643270   14.610929   2.110648   -0.970234   -14.586159   
2.984154   0.817799   9.220102   2.164448   -0.038466   -12.867158   
3.883941   2.002481   6.016406   1.439366   1.086286   -8.262535   
0.210038   -0.893104   -1.937824   1.028291   -0.942754   3.094163   
2.386074   0.597405   3.825120   1.028291   -0.880510   3.764797   
3.446343   0.459417   7.399659   1.763574   -0.626030   6.268153   
5.634699   0.673303   11.518364   1.936421   -0.299430   8.957905   
7.582849   1.163119   16.821435   1.944865   0.130917   11.654431   
7.684555   1.302070   22.285974   1.766450   0.638642   13.170209   
5.554032   0.820004   26.717058   1.352578   1.123361   12.453211   
2.040073   -0.134522   29.377420   0.805901   1.495950   9.295099   
-1.371856   -1.155351   30.137035   0.259771   1.730603   4.316723   
-3.494477   -1.884792   28.994555   -0.288565   1.805422   -1.637948   
-3.715480   -2.054211   25.873056   -0.961537   1.630798   -7.673207   
-2.282998   -1.603552   20.797024   -1.781219   1.119301   -12.744939   
-0.305275   -0.746552   14.247679   -2.571331   0.296038   -15.789015   
0.907137   0.164018   7.071294   -3.115109   -0.708423   -16.097391   
0.923209   0.527396   -0.975142   -3.199024   -1.742999   -13.092363   
0.212439   -0.933801   -10.879991   -1.988641   -2.292275   -6.968926   
2.386074   0.597405   3.825120   -1.028291   0.880510   3.764797   
0.210038   -0.893104   -1.937824   -1.028291   0.942754   3.094163   
2.425522   0.614311   3.842027   -1.763574   0.880510   5.806491   
4.642507   0.972058   7.912301   -1.936421   0.626030   8.449409   
5.917773   0.794621   11.639682   -1.944865   0.299430   10.628995   
5.456813   0.251961   15.910277   -1.766450   -0.130917   12.103673   
3.221747   -0.610562   20.373342   -1.352578   -0.638642   12.094676   
0.134808   -1.502520   24.394534   -0.805901   -1.123361   10.096746   
-2.447419   -2.057733   27.454209   -0.259771   -1.495950   6.148150   
-3.473263   -2.055954   29.236432   0.288565   -1.730603   0.648418   
-2.462957   -1.442712   29.436635   0.961537   -1.805422   -5.705876   
0.080801   -0.427233   27.500033   1.781219   -1.630798   -11.655570   
2.678153   0.522655   22.923232   2.571331   -1.119301   -15.553350   
3.857244   1.037385   16.031616   3.115109   -0.296038   -16.254169   
4.031546   1.503050   8.410326   3.199024   0.708423   -13.926785   
4.556537   2.084537   0.581999   1.988641   1.742999   -8.721465   
-0.275350   -1.246718   -4.289885   0.892273   -0.574177   2.106279   
1.770210   0.203993   1.077937   0.892273   -0.710195   2.357291   
3.031709   0.272271   4.727213   1.621102   -0.852667   3.917943   
5.581123   0.570846   8.880912   1.975799   -0.813290   6.727933   
8.631250   1.242884   14.640274   2.274010   -0.484145   10.723815   
10.648420   2.008644   22.249254   2.448559   0.197964   14.937901   
9.164073   1.778774   29.594935   2.294158   1.139544   16.589208   
4.362442   0.359933   34.471055   1.662910   1.996553   13.869864   
-0.982275   -1.450506   36.225472   0.846172   2.582955   7.500068   
-3.785690   -2.537159   35.066835   -0.117650   2.753869   -0.637289   
-3.018367   -2.397704   30.788550   -1.376242   2.339164   -8.730746   
0.060543   -1.273503   23.607777   -2.717030   1.403353   -14.628561   
2.305093   -0.128021   14.521168   -3.690115   0.284569   -16.913241   
2.326531   0.430868   4.357303   -4.155713   -0.756034   -15.902094   
0.968270   0.151986   -6.800731   -4.010776   -1.567786   -12.518847   
-0.564049   -2.042554   -19.540666   -2.408234   -1.987379   -7.225370   
1.770210   0.203993   1.077937   -0.892273   0.710195   2.357291   
-0.275350   -1.246718   -4.289885   -0.892273   0.574177   2.106279   
1.967061   0.288358   1.162301   -1.621102   0.710195   3.576987   
4.665578   0.972501   5.427442   -1.975799   0.852667   6.136859   
7.089767   1.217407   9.527474   -2.274010   0.813290   9.432415   
7.964564   0.957161   14.354552   -2.448559   0.484145   12.812586   
5.776567   -0.079293   20.161317   -2.294158   -0.197964   14.697634   
1.304130   -1.589772   26.226388   -1.662910   -1.139544   13.372986   
-2.809745   -2.713861   31.397261   -0.846172   -1.996553   8.537301   
-3.849352   -2.679254   34.996724   0.117650   -2.582955   0.837470   
-1.081304   -1.378136   36.225858   1.376242   -2.753869   -8.211910   
3.572242   0.426843   33.613096   2.717030   -2.339164   -15.706484   
6.289047   1.395856   26.277136   3.690115   -1.403353   -18.715366   
6.212884   1.546746   16.195935   4.155713   -0.284569   -17.558660   
5.116857   1.626722   5.553157   4.010776   0.756034   -13.984509   
4.936764   1.852769   -5.099948   2.408234   1.567786   -8.882555   
-0.588893   -1.225291   -4.502088   0.609659   -0.206712   1.033051   
0.937448   -0.105390   -0.534186   0.609659   -0.489326   0.835889   
1.947602   -0.036132   2.125350   1.190365   -0.920063   1.248397   
4.247938   0.153235   5.233184   1.653559   -1.242303   3.399336   
7.820553   0.705318   10.151119   2.302017   -1.214296   7.655295   
12.338244   1.917142   18.709412   3.128044   -0.534811   14.311867   
15.266511   3.327065   31.324194   3.753452   0.924483   21.450876   
10.092219   1.491103   41.138378   3.724534   2.986107   21.307089   
1.596214   -1.861449   44.970222   2.253812   4.393747   12.549524   
-2.222019   -3.616129   43.065563   0.043631   4.555028   -0.368037   
2.300508   -2.077033   36.006867   -2.653786   3.277484   -11.778981   
7.186492   -0.016173   25.412054   -4.354048   1.640467   -16.904116   
7.400808   0.834873   13.481991   -5.037427   0.293154   -16.723387   
4.582188   0.687471   1.135190   -5.079490   -0.630623   -14.339585   
1.380474   -0.177270   -11.860534   -4.609027   -1.228874   -11.106516   
-1.189857   -3.007184   -26.491339   -2.688955   -1.509595   -7.074963   
0.937448   -0.105390   -0.534186   -0.609659   0.489326   0.835889   
-0.588893   -1.225291   -4.502088   -0.609659   0.206712   1.033051   
1.195257   0.005100   -0.423696   -1.190365   0.489326   1.410726   
3.712646   0.720316   2.881797   -1.653559   0.920063   3.486707   
6.848182   1.267625   6.347574   -2.302017   1.242303   7.118896   
9.956436   1.620696   11.066498   -3.128044   1.214296   12.173999   
10.616320   1.179174   17.971445   -3.753452   0.534811   17.513050   
5.079143   -1.038950   26.958179   -3.724534   -0.924483   18.699221   
-1.538272   -3.493393   36.153882   -2.253812   -2.986107   12.489258   
-2.065904   -3.430928   43.400743   -0.043631   -4.393747   0.026005   
6.095066   -0.051664   46.630028   2.653786   -4.555028   -14.592195   
12.324199   2.218835   40.302735   4.354048   -3.277484   -21.679091   
11.949213   2.024993   27.453220   5.037427   -1.640467   -20.660771   
8.652248   1.371204   14.018323   5.079490   -0.293154   -16.759055   
5.869685   1.239256   1.686974   4.609027   0.630623   -12.667225   
4.971857   1.361894   -10.321371   2.688955   1.228874   -8.420180   
-0.779333   -0.911146   -3.205033   0.270040   0.020583   0.150008   
0.106132   -0.205708   -0.958922   0.270040   -0.319036   -0.368300   
0.349496   -0.233260   0.404064   0.587835   -0.921565   -0.942062   
1.316294   -0.423882   1.753699   1.021791   -1.553333   -0.162309   
4.052517   -0.338291   4.628125   1.843389   -2.011962   2.874978   
8.900723   0.128860   10.996285   3.343569   -1.796437   9.054123   
17.265639   2.251748   25.541071   5.480794   -0.069094   20.471884   
24.838476   6.236866   50.863539   6.788623   2.994995   33.767626   
7.081731   -2.540166   60.658677   7.371404   8.112587   22.551937   
6.582427   -3.590315   53.446488   -1.457652   6.611304   -4.448659   
17.463763   0.443569   39.853892   -5.592995   3.672095   -17.185771   
18.427267   2.075750   25.077900   -6.664531   1.361611   -16.912106   
12.388608   1.517462   11.218346   -6.243665   0.155374   -13.640804   
6.452607   0.696012   -2.001220   -5.682946   -0.448082   -10.986534   
1.627743   -0.601650   -15.749504   -4.931864   -0.770919   -8.681806   
-1.810026   -3.874895   -31.372134   -2.821010   -0.902974   -6.451945   
0.106132   -0.205708   -0.958922   -0.270040   0.319036   -0.368300   
-0.779333   -0.911146   -3.205033   -0.270040   -0.020583   0.150008   
-0.105573   -0.296438   -1.049653   -0.587835   0.319036   -0.155461   
1.182892   0.123910   0.761233   -1.021791   0.921565   1.156663   
3.804280   0.642398   2.819979   -1.843389   1.553333   4.258097   
7.818535   1.275716   6.242132   -3.343569   2.011962   9.505737   
13.430010   2.069982   12.937408   -5.480794   1.796437   17.351377   
15.624087   1.548226   24.837549   -6.788623   0.069094   25.763795   
0.524007   -4.183621   40.443052   -7.371404   -2.994995   21.796094   
9.746304   -1.398206   61.800637   1.457652   -8.112587   -8.819754   
25.090627   4.341771   61.378574   5.592995   -6.611304   -27.380361   
24.068865   3.274328   42.684651   6.664531   -3.672095   -25.153217   
16.120893   1.087304   24.089454   6.243665   -1.361611   -17.842432   
10.068248   0.523022   10.223906   5.682946   -0.155374   -13.147134   
6.033845   0.516542   -2.180690   4.931864   0.448082   -9.867401   
4.631003   0.685461   -14.462393   2.821010   0.770919   -7.301470   
-0.809656   -0.433612   -1.399851   0.004316   0.063374   -0.203409   
-0.421373   -0.048206   -0.490980   0.004316   -0.202350   -0.753515   
-1.353791   -0.247470   -0.089578   0.046107   -0.744078   -1.684361   
-2.662877   -0.929641   -0.172989   0.305101   -1.460768   -2.259772   
-3.218923   -2.080004   -0.172009   1.135204   -2.168953   -1.923943   
-0.325191   -2.505820   3.356229   2.714316   -2.798206   1.731021   
4.661281   -3.741222   12.013325   6.148238   -2.130763   8.486558   
35.483717   12.661627   79.792347   22.890781   2.609640   79.239051   
72.621079   23.496335   125.275408   5.359059   22.422556   -30.298229   
64.032501   12.677403   73.131460   -3.685111   7.930149   -16.146792   
40.665566   5.349051   39.554759   -11.255468   2.267676   -17.966062   
25.129017   2.752317   22.221336   -8.381835   0.550372   -10.679333   
14.865359   1.462845   8.552221   -6.796569   -0.002533   -7.776400   
7.200138   0.382373   -4.311717   -5.859549   -0.179136   -6.130641   
1.490439   -1.127282   -17.954100   -4.956888   -0.204160   -5.438110   
-2.449604   -4.612583   -33.728463   -2.802716   -0.185867   -5.428201   
-0.421373   -0.048206   -0.490980   -0.004316   0.202350   -0.753515   
-0.809656   -0.433612   -1.399851   -0.004316   -0.063374   -0.203409   
-1.758184   -0.621125   -1.063899   -0.046107   0.202350   -0.491337   
-2.806845   -0.870208   -0.712315   -0.305101   0.744078   0.239794   
-2.947227   -1.051505   -0.294853   -1.135204   1.460768   2.159816   
-0.576416   -0.947501   0.960494   -2.714316   2.168953   6.456785   
3.390145   -0.913533   4.948516   -6.148238   2.798206   13.677437   
31.351241   7.697332   23.451879   -9.459288   2.130763   -53.998719   
55.188218   21.106413   88.237134   -23.806332   -2.609640   -22.873597   
47.939502   12.918516   114.697589   14.240186   -22.422556   -70.713523   
49.096360   6.276200   66.730257   11.255468   -7.930149   -34.750600   
27.799698   -0.164892   34.040815   8.381835   -2.267676   -16.337601   
17.353522   -0.580038   18.888981   6.796569   -0.550372   -10.309457   
10.178188   -0.545942   6.543434   5.859549   0.002533   -7.311234   
5.633097   -0.289216   -4.983306   4.956888   0.179136   -5.962544   
3.964476   -0.066980   -16.893799   2.802716   0.204160   -5.650222   
0.131413   -0.313561   -0.001595   0.202747   0.087957   -0.058571   
0.089465   -0.490674   0.035689   0.202747   0.149677   0.226383   
0.590788   -0.872218   -0.100390   0.566674   0.250289   0.335123   
2.089544   -1.404827   -0.285489   1.069276   0.333415   0.479414   
4.874761   -2.406864   -0.556227   2.026593   0.760323   1.071922   
10.288916   -3.743338   -0.058737   3.588423   0.117565   2.591061   
15.705905   -7.103910   1.351897   6.240991   3.830454   -9.862817   
58.065934   7.507899   52.840940   19.950953   -3.545674   -121.962369   
62.958801   1.379513   62.937131   0.527107   -14.956701   -1.980657   
64.351731   6.150603   50.742251   -5.669847   -0.108685   -26.225869   
39.613622   3.698133   33.940652   -11.549357   -0.402574   -2.750333   
24.165587   1.709405   18.814883   -8.288553   -0.309292   -1.797975   
14.202338   0.812790   6.742505   -6.593161   -0.105884   -0.539459   
6.641010   -0.175935   -5.162784   -5.597609   0.156057   -0.583654   
0.944563   -1.691348   -18.066305   -4.689896   0.423049   -1.756083   
-3.073431   -5.160497   -33.234661   -2.638566   0.587200   -4.114230   
0.089465   -0.490674   0.035689   -0.202747   -0.149677   0.226383   
0.131413   -0.313561   -0.001595   -0.202747   -0.087957   -0.058571   
0.973363   -0.111860   0.414503   -0.566674   -0.149677   -0.611377   
2.898189   0.116668   0.888496   -1.069276   -0.250289   -1.358554   
6.352879   0.422316   1.541654   -2.026593   -0.333415   -2.370253   
12.501867   0.861896   2.712533   -3.588423   -0.760323   -4.395488   
18.368491   -0.280662   3.403938   -6.240991   -0.117565   -4.927621   
25.433991   -2.934730   5.521077   -13.243705   -3.830454   56.121320   
56.207453   6.711407   52.044448   -22.094563   3.545674   -11.221738   