<VTKFile type="UnstructuredGrid"  version="0.1"   > 
<UnstructuredGrid> 
<Piece  NumberOfPoints="  1226" NumberOfCells=" 1140"> 
<Points> 
<DataArray  type="Float64"  NumberOfComponents="3"  format="ascii" > 
0.000000 0.000000 0.0 
0.496914 0.000000 0.0 
0.777778 0.000000 0.0 
1.037037 0.000000 0.0 
1.296296 0.000000 0.0 
1.555556 0.000000 0.0 
1.814815 0.000000 0.0 
2.074074 0.000000 0.0 
2.333333 0.000000 0.0 
2.592593 0.000000 0.0 
2.851852 0.000000 0.0 
3.111111 0.000000 0.0 
3.370370 0.000000 0.0 
3.629630 0.000000 0.0 
3.888889 0.000000 0.0 
4.148148 0.000000 0.0 
4.407407 0.000000 0.0 
4.666667 0.000000 0.0 
4.925926 0.000000 0.0 
5.185185 0.000000 0.0 
5.444444 0.000000 0.0 
5.703704 0.000000 0.0 
5.962963 0.000000 0.0 
6.222222 0.000000 0.0 
6.503086 0.000000 0.0 
7.000000 0.000000 0.0 
0.000000 0.652482 0.0 
0.496914 0.652482 0.0 
0.777778 0.652482 0.0 
1.037037 0.652482 0.0 
1.296296 0.652482 0.0 
1.555556 0.652482 0.0 
1.814815 0.652482 0.0 
2.074074 0.652482 0.0 
2.333333 0.652482 0.0 
2.592593 0.652482 0.0 
2.851852 0.652482 0.0 
3.111111 0.652482 0.0 
3.370370 0.652482 0.0 
3.629630 0.652482 0.0 
3.888889 0.652482 0.0 
4.148148 0.652482 0.0 
4.407407 0.652482 0.0 
4.666667 0.652482 0.0 
4.925926 0.652482 0.0 
5.185185 0.652482 0.0 
5.444444 0.652482 0.0 
5.703704 0.652482 0.0 
5.962963 0.652482 0.0 
6.222222 0.652482 0.0 
6.503086 0.652482 0.0 
7.000000 0.652482 0.0 
0.000000 1.021277 0.0 
0.496914 1.021277 0.0 
0.777778 1.021277 0.0 
1.037037 1.021277 0.0 
1.296296 1.021277 0.0 
1.555556 1.021277 0.0 
1.814815 1.021277 0.0 
2.074074 1.021277 0.0 
2.333333 1.021277 0.0 
2.592593 1.021277 0.0 
2.851852 1.021277 0.0 
3.111111 1.021277 0.0 
3.370370 1.021277 0.0 
3.629630 1.021277 0.0 
3.888889 1.021277 0.0 
4.148148 1.021277 0.0 
4.407407 1.021277 0.0 
4.666667 1.021277 0.0 
4.925926 1.021277 0.0 
5.185185 1.021277 0.0 
5.444444 1.021277 0.0 
5.703704 1.021277 0.0 
5.962963 1.021277 0.0 
6.222222 1.021277 0.0 
6.503086 1.021277 0.0 
7.000000 1.021277 0.0 
0.000000 1.361702 0.0 
0.496914 1.361702 0.0 
0.777778 1.361702 0.0 
1.037037 1.361702 0.0 
1.296296 1.361702 0.0 
1.555556 1.361702 0.0 
1.814815 1.361702 0.0 
2.074074 1.361702 0.0 
2.333333 1.361702 0.0 
2.592593 1.361702 0.0 
2.851852 1.361702 0.0 
3.111111 1.361702 0.0 
3.370370 1.361702 0.0 
3.629630 1.361702 0.0 
3.888889 1.361702 0.0 
4.148148 1.361702 0.0 
4.407407 1.361702 0.0 
4.666667 1.361702 0.0 
4.925926 1.361702 0.0 
5.185185 1.361702 0.0 
5.444444 1.361702 0.0 
5.703704 1.361702 0.0 
5.962963 1.361702 0.0 
6.222222 1.361702 0.0 
6.503086 1.361702 0.0 
7.000000 1.361702 0.0 
0.000000 1.702128 0.0 
0.496914 1.702128 0.0 
0.777778 1.702128 0.0 
1.037037 1.702128 0.0 
1.296296 1.702128 0.0 
1.555556 1.702128 0.0 
1.814815 1.702128 0.0 
2.074074 1.702128 0.0 
2.333333 1.702128 0.0 
2.592593 1.702128 0.0 
2.851852 1.702128 0.0 
3.111111 1.702128 0.0 
3.370370 1.702128 0.0 
3.629630 1.702128 0.0 
3.888889 1.702128 0.0 
4.148148 1.702128 0.0 
4.407407 1.702128 0.0 
4.666667 1.702128 0.0 
4.925926 1.702128 0.0 
5.185185 1.702128 0.0 
5.444444 1.702128 0.0 
5.703704 1.702128 0.0 
5.962963 1.702128 0.0 
6.222222 1.702128 0.0 
6.503086 1.702128 0.0 
7.000000 1.702128 0.0 
0.000000 2.042553 0.0 
0.496914 2.042553 0.0 
0.777778 2.042553 0.0 
1.037037 2.042553 0.0 
1.296296 2.042553 0.0 
1.555556 2.042553 0.0 
1.814815 2.042553 0.0 
2.074074 2.042553 0.0 
2.333333 2.042553 0.0 
2.592593 2.042553 0.0 
2.851852 2.042553 0.0 
3.111111 2.042553 0.0 
3.370370 2.042553 0.0 
3.629630 2.042553 0.0 
3.888889 2.042553 0.0 
4.148148 2.042553 0.0 
4.407407 2.042553 0.0 
4.666667 2.042553 0.0 
4.925926 2.042553 0.0 
5.185185 2.042553 0.0 
5.444444 2.042553 0.0 
5.703704 2.042553 0.0 
5.962963 2.042553 0.0 
6.222222 2.042553 0.0 
6.503086 2.042553 0.0 
7.000000 2.042553 0.0 
0.000000 2.382979 0.0 
0.496914 2.382979 0.0 
0.777778 2.382979 0.0 
1.037037 2.382979 0.0 
1.296296 2.382979 0.0 
1.555556 2.382979 0.0 
1.814815 2.382979 0.0 
2.074074 2.382979 0.0 
2.333333 2.382979 0.0 
2.592593 2.382979 0.0 
2.851852 2.382979 0.0 
3.111111 2.382979 0.0 
3.370370 2.382979 0.0 
3.629630 2.382979 0.0 
3.888889 2.382979 0.0 
4.148148 2.382979 0.0 
4.407407 2.382979 0.0 
4.666667 2.382979 0.0 
4.925926 2.382979 0.0 
5.185185 2.382979 0.0 
5.444444 2.382979 0.0 
5.703704 2.382979 0.0 
5.962963 2.382979 0.0 
6.222222 2.382979 0.0 
6.503086 2.382979 0.0 
7.000000 2.382979 0.0 
0.000000 2.723404 0.0 
0.496914 2.723404 0.0 
0.777778 2.723404 0.0 
1.037037 2.723404 0.0 
1.296296 2.723404 0.0 
1.555556 2.723404 0.0 
1.814815 2.723404 0.0 
2.074074 2.723404 0.0 
2.333333 2.723404 0.0 
2.592593 2.723404 0.0 
2.851852 2.723404 0.0 
3.111111 2.723404 0.0 
3.370370 2.723404 0.0 
3.629630 2.723404 0.0 
3.888889 2.723404 0.0 
4.148148 2.723404 0.0 
4.407407 2.723404 0.0 
4.666667 2.723404 0.0 
4.925926 2.723404 0.0 
5.185185 2.723404 0.0 
5.444444 2.723404 0.0 
5.703704 2.723404 0.0 
5.962963 2.723404 0.0 
6.222222 2.723404 0.0 
6.503086 2.723404 0.0 
7.000000 2.723404 0.0 
0.000000 3.063830 0.0 
0.496914 3.063830 0.0 
0.777778 3.063830 0.0 
1.037037 3.063830 0.0 
1.296296 3.063830 0.0 
1.555556 3.063830 0.0 
1.814815 3.063830 0.0 
2.074074 3.063830 0.0 
2.333333 3.063830 0.0 
2.592593 3.063830 0.0 
2.851852 3.063830 0.0 
3.111111 3.063830 0.0 
3.370370 3.063830 0.0 
3.629630 3.063830 0.0 
3.888889 3.063830 0.0 
4.148148 3.063830 0.0 
4.407407 3.063830 0.0 
4.666667 3.063830 0.0 
4.925926 3.063830 0.0 
5.185185 3.063830 0.0 
5.444444 3.063830 0.0 
5.703704 3.063830 0.0 
5.962963 3.063830 0.0 
6.222222 3.063830 0.0 
6.503086 3.063830 0.0 
7.000000 3.063830 0.0 
0.000000 3.404255 0.0 
0.496914 3.404255 0.0 
0.777778 3.404255 0.0 
1.037037 3.404255 0.0 
1.296296 3.404255 0.0 
1.555556 3.404255 0.0 
1.814815 3.404255 0.0 
2.074074 3.404255 0.0 
2.333333 3.404255 0.0 
2.592593 3.404255 0.0 
2.851852 3.404255 0.0 
3.111111 3.404255 0.0 
3.370370 3.404255 0.0 
3.629630 3.404255 0.0 
3.888889 3.404255 0.0 
4.148148 3.404255 0.0 
4.407407 3.404255 0.0 
4.666667 3.404255 0.0 
4.925926 3.404255 0.0 
5.185185 3.404255 0.0 
5.444444 3.404255 0.0 
5.703704 3.404255 0.0 
5.962963 3.404255 0.0 
6.222222 3.404255 0.0 
6.503086 3.404255 0.0 
7.000000 3.404255 0.0 
0.000000 3.744681 0.0 
0.496914 3.744681 0.0 
0.777778 3.744681 0.0 
1.037037 3.744681 0.0 
1.296296 3.744681 0.0 
1.555556 3.744681 0.0 
1.814815 3.744681 0.0 
2.074074 3.744681 0.0 
2.333333 3.744681 0.0 
2.592593 3.744681 0.0 
2.851852 3.744681 0.0 
3.111111 3.744681 0.0 
3.370370 3.744681 0.0 
3.629630 3.744681 0.0 
3.888889 3.744681 0.0 
4.148148 3.744681 0.0 
4.407407 3.744681 0.0 
4.666667 3.744681 0.0 
4.925926 3.744681 0.0 
5.185185 3.744681 0.0 
5.444444 3.744681 0.0 
5.703704 3.744681 0.0 
5.962963 3.744681 0.0 
6.222222 3.744681 0.0 
6.503086 3.744681 0.0 
7.000000 3.744681 0.0 
0.000000 4.085106 0.0 
0.496914 4.085106 0.0 
0.777778 4.085106 0.0 
1.037037 4.085106 0.0 
1.296296 4.085106 0.0 
1.555556 4.085106 0.0 
1.814815 4.085106 0.0 
2.074074 4.085106 0.0 
2.333333 4.085106 0.0 
2.592593 4.085106 0.0 
2.851852 4.085106 0.0 
3.111111 4.085106 0.0 
3.370370 4.085106 0.0 
3.629630 4.085106 0.0 
3.888889 4.085106 0.0 
4.148148 4.085106 0.0 
4.407407 4.085106 0.0 
4.666667 4.085106 0.0 
4.925926 4.085106 0.0 
5.185185 4.085106 0.0 
5.444444 4.085106 0.0 
5.703704 4.085106 0.0 
5.962963 4.085106 0.0 
6.222222 4.085106 0.0 
6.503086 4.085106 0.0 
7.000000 4.085106 0.0 
0.000000 4.425532 0.0 
0.496914 4.425532 0.0 
0.777778 4.425532 0.0 
1.037037 4.425532 0.0 
1.296296 4.425532 0.0 
1.555556 4.425532 0.0 
1.814815 4.425532 0.0 
2.074074 4.425532 0.0 
2.333333 4.425532 0.0 
2.592593 4.425532 0.0 
2.851852 4.425532 0.0 
3.111111 4.425532 0.0 
3.370370 4.425532 0.0 
3.629630 4.425532 0.0 
3.888889 4.425532 0.0 
4.148148 4.425532 0.0 
4.407407 4.425532 0.0 
4.666667 4.425532 0.0 
4.925926 4.425532 0.0 
5.185185 4.425532 0.0 
5.444444 4.425532 0.0 
5.703704 4.425532 0.0 
5.962963 4.425532 0.0 
6.222222 4.425532 0.0 
6.503086 4.425532 0.0 
7.000000 4.425532 0.0 
0.000000 4.765957 0.0 
0.496914 4.765957 0.0 
0.777778 4.765957 0.0 
1.037037 4.765957 0.0 
1.296296 4.765957 0.0 
1.555556 4.765957 0.0 
1.814815 4.765957 0.0 
2.074074 4.765957 0.0 
2.333333 4.765957 0.0 
2.592593 4.765957 0.0 
2.851852 4.765957 0.0 
3.111111 4.765957 0.0 
3.370370 4.765957 0.0 
3.629630 4.765957 0.0 
3.888889 4.765957 0.0 
4.148148 4.765957 0.0 
4.407407 4.765957 0.0 
4.666667 4.765957 0.0 
4.925926 4.765957 0.0 
5.185185 4.765957 0.0 
5.444444 4.765957 0.0 
5.703704 4.765957 0.0 
5.962963 4.765957 0.0 
6.222222 4.765957 0.0 
6.503086 4.765957 0.0 
7.000000 4.765957 0.0 
0.000000 5.106383 0.0 
0.496914 5.106383 0.0 
0.777778 5.106383 0.0 
1.037037 5.106383 0.0 
1.296296 5.106383 0.0 
1.555556 5.106383 0.0 
1.814815 5.106383 0.0 
2.074074 5.106383 0.0 
2.333333 5.106383 0.0 
2.592593 5.106383 0.0 
2.851852 5.106383 0.0 
3.111111 5.106383 0.0 
3.370370 5.106383 0.0 
3.629630 5.106383 0.0 
3.888889 5.106383 0.0 
4.148148 5.106383 0.0 
4.407407 5.106383 0.0 
4.666667 5.106383 0.0 
4.925926 5.106383 0.0 
5.185185 5.106383 0.0 
5.444444 5.106383 0.0 
5.703704 5.106383 0.0 
5.962963 5.106383 0.0 
6.222222 5.106383 0.0 
6.503086 5.106383 0.0 
7.000000 5.106383 0.0 
0.000000 5.446809 0.0 
0.496914 5.446809 0.0 
0.777778 5.446809 0.0 
1.037037 5.446809 0.0 
1.296296 5.446809 0.0 
1.555556 5.446809 0.0 
1.814815 5.446809 0.0 
2.074074 5.446809 0.0 
2.333333 5.446809 0.0 
2.592593 5.446809 0.0 
2.851852 5.446809 0.0 
3.111111 5.446809 0.0 
3.370370 5.446809 0.0 
3.629630 5.446809 0.0 
3.888889 5.446809 0.0 
4.148148 5.446809 0.0 
4.407407 5.446809 0.0 
4.666667 5.446809 0.0 
4.925926 5.446809 0.0 
5.185185 5.446809 0.0 
5.444444 5.446809 0.0 
5.703704 5.446809 0.0 
5.962963 5.446809 0.0 
6.222222 5.446809 0.0 
6.503086 5.446809 0.0 
7.000000 5.446809 0.0 
0.000000 5.787234 0.0 
0.496914 5.787234 0.0 
0.777778 5.787234 0.0 
1.037037 5.787234 0.0 
1.296296 5.787234 0.0 
1.555556 5.787234 0.0 
1.814815 5.787234 0.0 
2.074074 5.787234 0.0 
2.333333 5.787234 0.0 
[...]
<PointData  Vectors="sigma"> 
<DataArray  type="Float64"  Name="sigma" NumberOfComponents="4" format="ascii"> 
5.507595   22.030379   4.614978   21.406327   
3.056700   12.226801   2.406878   11.783192   
2.556962   10.227849   2.011691   9.855731   
2.240652   8.962608   1.827596   8.676814   
1.936642   7.746570   1.697219   7.576229   
1.676627   6.706507   1.625463   6.668613   
1.426508   5.706033   1.586744   5.831578   
1.191884   4.767537   1.585612   5.100014   
0.959493   3.837974   1.627417   4.462467   
0.733706   2.934825   1.734488   4.002944   
0.485108   1.940433   1.959613   3.818317   
0.206925   0.827702   2.423441   4.263313   
4.966076   0.098011   2.527884   6.584480   
5.191780   -0.858004   0.465557   5.726739   
1.682874   -1.940951   0.370787   3.205959   
1.945104   -2.661371   0.168413   4.015975   
1.133730   -3.523722   0.170402   4.217110   
0.995358   -4.403125   0.136969   4.981688   
0.703719   -5.306884   0.131795   5.696043   
0.547745   -6.243701   0.123136   6.538293   
0.394328   -7.197616   0.118916   7.405526   
0.280309   -8.177201   0.115447   8.323300   
0.184042   -9.177289   0.113289   9.272757   
0.111084   -10.202757   0.111131   10.260555   
0.031994   -11.349585   0.109611   11.367201   
-0.049123   -13.445362   0.104548   13.422089   
-0.093084   12.986705   0.008772   13.033505   
0.557623   12.036589   1.710700   12.134992   
1.076720   10.498077   1.906151   10.534025   
1.135492   9.089568   1.938760   9.212211   
1.218318   7.920136   1.928316   8.106714   
1.173092   6.804745   1.890087   7.100380   
1.135624   5.782346   1.851437   6.200165   
1.075541   4.792996   1.807661   5.364462   
1.049868   3.840324   1.753340   4.587055   
1.043395   2.883539   1.680335   3.855564   
1.112869   1.974467   1.527985   3.153393   
1.113834   1.098920   1.292837   2.497703   
1.229492   0.779550   1.083232   2.163578   
1.212421   -0.066738   1.304042   2.580099   
1.088818   -1.364942   1.096541   2.853413   
1.016668   -2.275804   0.927760   3.332994   
0.822185   -3.292079   0.735890   3.980587   
0.682703   -4.213470   0.610445   4.713161   
0.527408   -5.179889   0.498247   5.530468   
0.409054   -6.136236   0.416435   6.391480   
0.300020   -7.116459   0.347156   7.295932   
0.214764   -8.107071   0.291595   8.232066   
0.139309   -9.117582   0.244222   9.197761   
0.085738   -10.143316   0.199513   10.192315   
0.010712   -11.288962   0.159515   11.297700   
-0.060635   -13.426277   0.054317   13.396393   
-0.080199   13.088739   0.083437   13.129817   
0.331532   11.320474   1.113612   11.323884   
0.463418   10.085985   1.444645   10.174911   
0.671345   8.975039   1.686525   9.138369   
0.756841   7.860339   1.778032   8.117444   
0.818803   6.822303   1.824650   7.184440   
0.825420   5.825736   1.817018   6.302103   
0.825291   4.878740   1.780779   5.474518   
0.808653   3.963490   1.715222   4.688715   
0.805024   3.096237   1.614837   3.945288   
0.774555   2.263877   1.508447   3.286004   
0.781878   1.514363   1.387964   2.738596   
0.635542   0.541394   1.311350   2.347735   
0.594984   -0.309050   1.157640   2.157264   
0.625596   -1.100142   1.086149   2.414350   
0.532174   -2.110778   0.952230   2.929526   
0.489721   -3.057987   0.836326   3.631389   
0.396558   -4.050379   0.701720   4.432411   
0.326193   -5.024489   0.591947   5.295474   
0.248791   -6.016347   0.489858   6.202823   
0.187019   -7.012276   0.406169   7.142363   
0.132038   -8.020851   0.332560   8.108164   
0.086512   -9.040029   0.269847   9.095610   
0.052626   -10.071061   0.210158   10.104036   
0.002073   -11.209818   0.152047   11.213948   
-0.049850   -13.262280   0.019352   13.237468   
0.083273   12.138237   0.077775   12.097565   
0.077281   10.730539   0.897776   10.804591   
0.267708   9.735647   1.278340   9.856502   
0.352005   8.721844   1.526294   8.950590   
0.459057   7.741782   1.696343   8.076184   
0.504190   6.768373   1.783526   7.224641   
0.534637   5.836130   1.816006   6.412462   
0.531006   4.930354   1.799962   5.629556   
0.518866   4.058872   1.744387   4.875070   
0.481880   3.206849   1.662065   4.154293   
0.447027   2.385021   1.549470   3.467645   
0.371180   1.545467   1.443659   2.864446   
0.354814   0.809426   1.331842   2.411488   
0.302656   -0.049983   1.255081   2.198844   
0.234981   -1.017521   1.144639   2.293525   
0.222511   -1.931894   1.038597   2.729037   
0.175888   -2.914857   0.906595   3.392014   
0.151673   -3.888978   0.786695   4.194482   
0.113612   -4.888554   0.665352   5.078813   
0.087411   -5.891057   0.559543   6.013851   
0.060211   -6.906293   0.464019   6.982999   
0.041959   -7.927494   0.381686   7.976002   
0.024563   -8.957022   0.309645   8.985349   
0.016098   -9.990586   0.241030   10.007356   
-0.016144   -11.122991   0.176392   11.119126   
-0.051626   -13.144900   0.019460   13.119207   
0.000157   11.706433   0.057079   11.706772   
0.084381   10.232295   0.794118   10.282773   
0.100345   9.300389   1.132246   9.456216   
0.177034   8.437039   1.417691   8.703497   
0.217745   7.545052   1.609869   7.944014   
0.254368   6.671349   1.739779   7.207990   
0.259752   5.807500   1.801838   6.482737   
0.252343   4.966969   1.812684   5.773955   
0.222134   4.141196   1.779962   5.077769   
0.185881   3.335492   1.711286   4.396084   
0.129333   2.531551   1.625418   3.744865   
0.083480   1.743069   1.519011   3.133996   
0.015890   0.875933   1.414143   2.598652   
-0.026356   0.023010   1.295706   2.244636   
-0.047257   -0.837150   1.182038   2.203437   
-0.074968   -1.783650   1.054109   2.527201   
-0.077786   -2.736422   0.931042   3.143520   
-0.086805   -3.729248   0.800710   3.938847   
-0.082025   -4.732358   0.680538   4.837682   
-0.077999   -5.754596   0.567137   5.799787   
-0.066694   -6.784788   0.467982   6.800170   
-0.053835   -7.822854   0.380373   7.823864   
-0.039356   -8.863222   0.305404   8.859416   
-0.024150   -9.902703   0.235558   9.899062   
-0.030230   -11.027787   0.170258   11.016651   
-0.047013   -12.987086   0.019897   12.963689   
0.049649   11.162810   0.063225   11.138607   
0.010720   9.732676   0.752839   9.814330   
0.028186   8.906121   1.094137   9.091763   
0.033958   8.111832   1.371035   8.436037   
0.046904   7.323553   1.585993   7.799952   
0.039960   6.529585   1.733741   7.168942   
0.024732   5.746671   1.820702   6.544279   
-0.008895   4.968517   1.851745   5.917543   
-0.050522   4.199130   1.834884   5.286567   
-0.105826   3.427545   1.780910   4.651549   
-0.159087   2.655020   1.694312   4.013590   
-0.218735   1.856326   1.591715   3.391239   
-0.263167   1.064223   1.471156   2.823968   
-0.301057   0.216080   1.344231   2.371340   
-0.326356   -0.685467   1.207306   2.173806   
-0.330084   -1.601200   1.069709   2.361588   
-0.326378   -2.567621   0.925569   2.903656   
-0.303749   -3.556166   0.788320   3.677328   
-0.276104   -4.575469   0.655946   4.586790   
-0.237373   -5.610785   0.537107   5.574124   
-0.195782   -6.660734   0.431936   6.607523   
-0.149822   -7.715924   0.342627   7.665122   
-0.106153   -8.771339   0.268241   8.731117   
-0.064786   -9.818800   0.202891   9.792875   
-0.048306   -10.941608   0.145426   10.920440   
-0.045244   -12.857643   0.016570   12.835113   
0.027810   10.664703   0.063118   10.651386   
0.001122   9.274038   0.759885   9.366410   
-0.043554   8.491717   1.093000   8.721522   
-0.060299   7.786752   1.382391   8.175554   
-0.094651   7.073792   1.604072   7.644356   
-0.130395   6.367664   1.768831   7.126061   
-0.179957   5.659516   1.869912   6.600809   
-0.234919   4.953390   1.915161   6.062873   
-0.299281   4.241316   1.909380   5.503170   
-0.363815   3.522296   1.859356   4.918537   
-0.431122   2.783542   1.775324   4.311536   
-0.488997   2.026847   1.660684   3.689440   
-0.538184   1.222193   1.527344   3.072377   
-0.570589   0.389246   1.378440   2.529718   
-0.584474   -0.480154   1.220661   2.182100   
-0.580355   -1.406038   1.056328   2.201191   
-0.554704   -2.366313   0.895277   2.645581   
-0.515555   -3.369538   0.737981   3.393560   
-0.459557   -4.400957   0.593418   4.314343   
-0.394673   -5.458435   0.463411   5.332939   
-0.321384   -6.530368   0.353049   6.405011   
-0.246024   -7.609565   0.262456   7.503368   
-0.172168   -8.684915   0.192254   8.606568   
-0.106303   -9.747445   0.137308   9.697647   
-0.064726   -10.873521   0.094803   10.842547   
-0.042486   -12.750697   0.011574   12.729523   
0.039966   10.130727   0.069083   10.111511   
-0.027388   8.789575   0.796322   8.910695   
-0.087740   8.081948   1.142363   8.363591   
-0.141135   7.442382   1.438105   7.916046   
-0.203652   6.813706   1.671985   7.499486   
-0.274630   6.185845   1.845899   7.089495   
-0.351227   5.558571   1.957520   6.668511   
-0.434210   4.923868   2.010040   6.220273   
-0.518054   4.278544   2.007429   5.734121   
-0.602148   3.612810   1.956492   5.203270   
-0.678176   2.922588   1.862680   4.625170   
-0.744738   2.194255   1.735899   4.005442   
-0.795226   1.431318   1.581066   3.364310   
-0.826013   0.615580   1.406804   2.739892   
-0.833917   -0.254541   1.220423   2.239696   
-0.818179   -1.171255   1.030062   2.065439   
-0.780144   -2.142272   0.840492   2.376121   
-0.719097   -3.155983   0.661202   3.085359   
-0.641213   -4.210275   0.496574   4.022144   
-0.548121   -5.293111   0.353569   5.078506   
-0.446632   -6.396021   0.235217   6.198216   
-0.341191   -7.506086   0.144323   7.345694   
-0.238759   -8.610812   0.080577   8.495096   
-0.147611   -9.697010   0.041216   9.624318   
-0.082523   -10.837680   0.021079   10.796717   
-0.040699   -12.697571   0.003450   12.677272   
0.033572   9.548239   0.076931   9.532428   
-0.040640   8.293082   0.859549   8.445731   
-0.127775   7.648364   1.220765   7.997617   
-0.201258   7.088005   1.533485   7.665610   
-0.293756   6.536961   1.777495   7.363212   
-0.390578   5.994097   1.961967   7.069007   
-0.495970   5.447277   2.080010   6.752764   
-0.602937   4.891697   2.136019   6.397605   
-0.710628   4.317075   2.132141   5.987322   
-0.812273   3.716728   2.073442   5.512743   
-0.905081   3.079376   1.966682   4.969137   
-0.981988   2.399384   1.818003   4.358086   
-1.038406   1.663766   1.636946   3.689559   
-1.070491   0.871791   1.431912   2.998388   
-1.075491   0.018694   1.211819   2.362763   
-1.051301   -0.900012   0.985818   1.970935   
-0.998473   -1.877628   0.764383   2.097741   
-0.920220   -2.912430   0.555114   2.751987   
-0.818709   -3.993560   0.367113   3.708579   
-0.700444   -5.112458   0.206500   4.814019   
-0.570169   -6.254897   0.078875   5.991757   
-0.436297   -7.407527   -0.012555   7.199333   
-0.305017   -8.552891   -0.067498   8.405347   
-0.189367   -9.675842   -0.086287   9.583727   
-0.100268   -10.844942   -0.077077   10.795982   
-0.039336   -12.712404   -0.007025   12.692788   
0.034712   8.905713   0.086305   8.889665   
-0.055222   7.756143   0.941031   7.952718   
-0.155451   7.193735   1.326929   7.627219   
-0.248760   6.711541   1.658501   7.418092   
-0.361519   6.247135   1.917180   7.241725   
-0.482562   5.790144   2.111710   7.066166   
-0.611112   5.331024   2.236224   6.859535   
-0.742774   4.858921   2.293551   6.599321   
-0.872698   4.364484   2.285011   6.267617   
-0.996237   3.835895   2.215147   5.852236   
-1.106602   3.263455   2.089051   5.345882   
-1.198220   2.635086   1.914905   4.747357   
-1.265337   1.943580   1.700890   4.064105   
-1.302622   1.179632   1.457539   3.316357   
-1.306499   0.339269   1.196425   2.561171   
-1.276203   -0.577344   0.929414   1.953623   
-1.211898   -1.569359   0.667768   1.835054   
-1.115941   -2.628792   0.423431   2.400037   
-0.993313   -3.747515   0.205987   3.381623   
-0.849511   -4.911631   0.024560   4.546989   
-0.692162   -6.106685   -0.114787   5.795119   
-0.529958   -7.314825   -0.206653   7.073831   
-0.370985   -8.516100   -0.250972   8.348126   
-0.230876   -9.691449   -0.244528   9.587457   
-0.118761   -10.907900   -0.199251   10.854494   
-0.038947   -12.817597   -0.020365   12.798217   
0.030428   8.183411   0.097762   8.169995   
-0.063859   7.178743   1.036629   7.431060   
-0.174058   6.705399   1.450394   7.243669   
-0.278583   6.312665   1.806446   7.174657   
-0.407135   5.938239   2.081880   7.130833   
-0.545137   5.574885   2.289735   7.081261   
-0.694127   5.208445   2.421886   6.987247   
-0.847075   4.828889   2.481323   6.826202   
-1.000237   4.422689   2.467769   6.576780   
-1.146334   3.977557   2.384522   6.225150   
-1.278533   3.479181   2.236516   5.761390   
-1.389073   2.915021   2.030753   5.181498   
-1.470435   2.272776   1.777579   4.488765   
-1.516782   1.543239   1.488998   3.697880   
-1.524172   0.720499   1.178724   2.847552   
-1.490002   -0.196969   0.861676   2.047651   
-1.415472   -1.205775   0.552945   1.633389   
-1.303794   -2.299235   0.266371   2.049754   
-1.160181   -3.464524   0.014580   3.054522   
-0.992632   -4.687644   -0.191615   4.291429   
-0.808781   -5.949122   -0.344541   5.620567   
-0.620046   -7.229491   -0.436972   6.981419   
-0.434418   -8.504040   -0.468891   8.335027   
-0.271236   -9.751318   -0.432829   9.647740   
-0.137260   -11.037560   -0.345318   10.985867   
-0.039613   -13.032679   -0.036496   13.013072   
0.026730   7.377410   0.109615   7.366528   
-0.068083   6.550966   1.138725   6.874291   
-0.178929   6.181705   1.583880   6.846722   
-0.288300   5.884121   1.966980   6.928883   
-0.423437   5.607640   2.263506   7.026364   
-0.572314   5.342816   2.488321   7.106773   
-0.735460   5.077362   2.632444   7.130497   
-0.907252   4.798518   2.697374   7.073177   
-1.082339   4.492514   2.681032   6.912334   
-1.252888   4.142989   2.585032   6.631136   
-1.410375   3.733158   2.412750   6.217304   
-1.544369   3.245622   2.172025   5.664332   
-1.645892   2.663677   1.873250   4.971464   
-1.706440   1.976060   1.531184   4.149982   
-1.719821   1.174212   1.162889   3.226906   
-1.684770   0.254829   0.786897   2.278231   
-1.601608   -0.777875   0.421986   1.567994   
-1.475213   -1.913897   0.085969   1.742992   
-1.312368   -3.139934   -0.205638   2.754561   
-1.121883   -4.436088   -0.440033   4.067138   
-0.914080   -5.781728   -0.608026   5.485257   
-0.700831   -7.152314   -0.700834   6.935972   
-0.491728   -8.520788   -0.718532   8.378817   
-0.307752   -9.861849   -0.648945   9.776460   
-0.155013   -11.244809   -0.513811   11.203511   
-0.041873   -13.378821   -0.055463   13.358279   
0.020549   6.481807   0.121773   6.474993   
-0.064946   5.873378   1.238901   6.283857   
-0.166664   5.618027   1.715531   6.430822   
-0.270544   5.422855   2.128418   6.673692   
-0.402322   5.248160   2.449977   6.915465   
-0.552139   5.087912   2.698024   7.130144   
-0.722575   4.929693   2.860890   7.275997   
-0.908166   4.762239   2.938584   7.330377   
-1.104132   4.568657   2.925652   7.267356   
-1.301496   4.330523   2.821083   7.068168   
-1.487994   4.025292   2.626258   6.715535   
-1.651786   3.629954   2.346978   6.198855   
-1.778554   3.124910   1.995964   5.517043   
-1.857942   2.488340   1.590136   4.674674   
-1.883215   1.710127   1.151905   3.697597   
-1.849138   0.787990   0.705685   2.644110   
-1.759045   -0.274728   0.275301   1.706994   
-1.618280   -1.466740   -0.116920   1.561272   
-1.436279   -2.767142   -0.453306   2.522309   
-1.225561   -4.155540   -0.717830   3.901728   
-0.996325   -5.603525   -0.901512   5.408086   
-0.763529   -7.085539   -0.993287   6.952531   
-0.535772   -8.569505   -0.994867   8.491257   
-0.336178   -10.028885   -0.888170   9.984318   
-0.170107   -11.538438   -0.701396   11.518575   
-0.045916   -13.875554   -0.077163   13.853298   
0.013000   5.503620   0.132334   5.501908   
-0.052334   5.148190   1.325277   5.660839   
-0.131476   5.014977   1.831269   5.990599   
-0.217558   4.923776   2.274630   6.394054   
-0.331673   4.852961   2.626342   6.779664   
-0.470373   4.798859   2.905347   7.129563   
-0.637084   4.754253   3.097712   7.404399   
-0.829870   4.707309   3.199504   7.580525   
-1.043424   4.642537   3.200996   7.630539   
-1.267326   4.535962   3.095631   7.528506   
-1.489195   4.360689   2.880673   7.254107   
-1.689094   4.084276   2.562051   6.791567   
-1.851553   3.670750   2.151775   6.131040   
-1.957763   3.101441   1.673106   5.284082   
-1.995232   2.354620   1.152868   4.267377   
-1.964764   1.423259   0.622872   3.137872   
-1.866446   0.316054   0.115524   2.052668   
-1.711401   -0.946670   -0.341859   1.598608   
-1.512633   -2.344691   -0.725702   2.412241   
-1.283079   -3.844218   -1.021213   3.823676   
-1.038979   -5.417590   -1.217873   5.408386   
-0.793100   -7.031447   -1.306092   7.043525   
-0.556360   -8.654232   -1.288382   8.681600   
-0.349275   -10.256279   -1.141959   10.278288   
-0.179642   -11.924854   -0.901327   11.938567   
-0.052618   -14.539898   -0.100894   14.514712   
0.003743   4.459001   0.139952   4.463718   
-0.027472   4.385211   1.383081   5.008996   
-0.068021   4.374720   1.912523   5.514853   
-0.120114   4.384113   2.385576   6.069134   
-0.199327   4.411917   2.772138   6.590782   
-0.309373   4.462157   3.092467   7.076517   
-0.458237   4.531881   3.328324   7.487177   
-0.646522   4.615532   3.471989   7.801878   
-0.872747   4.694381   3.505533   7.985124   
-1.126900   4.744250   3.416197   8.008452   
-1.388380   4.723634   3.193710   7.835680   
-1.636813   4.590705   2.836155   7.443062   
-1.838921   4.307105   2.358505   6.822085   
-1.977773   3.817531   1.785692   5.966693   
-2.039395   3.106596   1.161662   4.918742   
-2.009313   2.166108   0.531253   3.732083   
-1.901559   1.006160   -0.064928   2.560118   
-1.728841   -0.354632   -0.589673   1.882736   
-1.509506   -1.869817   -1.022166   2.467143   
-1.267931   -3.509158   -1.342504   3.857385   
-1.015253   -5.228095   -1.546960   5.498648   
-0.769897   -6.996580   -1.624642   7.216413   
-0.537572   -8.778092   -1.583988   8.952769   
-0.337465   -10.546465   -1.395596   10.659541   
-0.179177   -12.405469   -1.102013   12.463880   
-0.062028   -15.381755   -0.125760   15.352380   
-0.007129   3.379723   0.141905   3.392209   
0.011650   3.600643   1.394464   4.330867   
0.028143   3.704892   1.937582   4.988530   
0.028102   3.801609   2.435934   5.669877   
0.006304   3.916102   2.861739   6.315051   
-0.053953   4.058787   3.233605   6.932838   
-0.162005   4.240064   3.531599   7.490519   
-0.329236   4.456512   3.739606   7.961790   
-0.554479   4.699947   3.832369   8.310483   
-0.830102   4.936008   3.780634   8.487062   
-1.138793   5.128154   3.561984   8.455643   
-1.442134   5.203805   3.170283   8.174106   
-1.713733   5.078112   2.615852   7.612797   
-1.898156   4.714116   1.941606   6.788484   
-1.969164   4.044370   1.193412   5.698356   
-1.942081   3.068874   0.437227   4.441078   
-1.815573   1.806451   -0.262162   3.169464   
-1.619718   0.321334   -0.864686   2.343130   
-1.387921   -1.356104   -1.336345   2.690842   
-1.136089   -3.158144   -1.672603   4.008670   
-0.893225   -5.050005   -1.869582   5.681164   
-0.664622   -6.988288   -1.927581   7.468602   
-0.460741   -8.946299   -1.857038   9.299053   
-0.287310   -10.897650   -1.626937   11.119852   
-0.163112   -12.975274   -1.285076   13.085190   
-0.075395   -16.399779   -0.149356   16.364257   
-0.018265   2.315518   0.136054   2.336618   
0.065198   2.819399   1.340625   3.627846   
0.155996   3.017234   1.882526   4.391933   
0.228073   3.179257   2.397912   5.165707   
0.286763   3.355809   2.862760   5.913337   
0.306124   3.571549   3.295995   6.659361   
0.266681   3.845471   3.673651   7.370237   
0.153166   4.194303   3.977411   8.026992   
-0.051994   4.607947   4.165675   8.575197   
-0.346506   5.070214   4.198888   8.970840   
-0.707413   5.496281   4.028683   9.126256   