<VTKFile type="UnstructuredGrid"  version="0.1"   > 
<UnstructuredGrid> 
<Piece  NumberOfPoints="  930" NumberOfCells=" 870"> 
<Points> 
<DataArray  type="Float64"  NumberOfComponents="3"  format="ascii" > 
0.000000 0.000000 0.0 
0.034483 0.000000 0.0 
0.068966 0.000000 0.0 
0.103448 0.000000 0.0 
0.137931 0.000000 0.0 
0.172414 0.000000 0.0 
0.206897 0.000000 0.0 
0.241379 0.000000 0.0 
0.275862 0.000000 0.0 
0.310345 0.000000 0.0 
0.344828 0.000000 0.0 
0.379310 0.000000 0.0 
0.413793 0.000000 0.0 
0.448276 0.000000 0.0 
0.482759 0.000000 0.0 
0.517241 0.000000 0.0 
0.551724 0.000000 0.0 
0.586207 0.000000 0.0 
0.620690 0.000000 0.0 
0.655172 0.000000 0.0 
0.689655 0.000000 0.0 
0.724138 0.000000 0.0 
0.758621 0.000000 0.0 
0.793103 0.000000 0.0 
0.827586 0.000000 0.0 
0.862069 0.000000 0.0 
0.896552 0.000000 0.0 
0.931034 0.000000 0.0 
0.965517 0.000000 0.0 
1.000000 0.000000 0.0 
0.000000 0.033333 0.0 
0.034483 0.033333 0.0 
0.068966 0.033333 0.0 
0.103448 0.033333 0.0 
0.137931 0.033333 0.0 
0.172414 0.033333 0.0 
0.206897 0.033333 0.0 
0.241379 0.033333 0.0 
0.275862 0.033333 0.0 
0.310345 0.033333 0.0 
0.344828 0.033333 0.0 
0.379310 0.033333 0.0 
0.413793 0.033333 0.0 
0.448276 0.033333 0.0 
0.482759 0.033333 0.0 
0.517241 0.033333 0.0 
0.551724 0.033333 0.0 
0.586207 0.033333 0.0 
0.620690 0.033333 0.0 
0.655172 0.033333 0.0 
0.689655 0.033333 0.0 
0.724138 0.033333 0.0 
0.758621 0.033333 0.0 
0.793103 0.033333 0.0 
0.827586 0.033333 0.0 
0.862069 0.033333 0.0 
0.896552 0.033333 0.0 
0.931034 0.033333 0.0 
0.965517 0.033333 0.0 
1.000000 0.033333 0.0 
0.000000 0.066667 0.0 
0.034483 0.066667 0.0 
0.068966 0.066667 0.0 
0.103448 0.066667 0.0 
0.137931 0.066667 0.0 
0.172414 0.066667 0.0 
0.206897 0.066667 0.0 
0.241379 0.066667 0.0 
0.275862 0.066667 0.0 
0.310345 0.066667 0.0 
0.344828 0.066667 0.0 
0.379310 0.066667 0.0 
0.413793 0.066667 0.0 
0.448276 0.066667 0.0 
0.482759 0.066667 0.0 
0.517241 0.066667 0.0 
0.551724 0.066667 0.0 
0.586207 0.066667 0.0 
0.620690 0.066667 0.0 
0.655172 0.066667 0.0 
0.689655 0.066667 0.0 
0.724138 0.066667 0.0 
0.758621 0.066667 0.0 
0.793103 0.066667 0.0 
0.827586 0.066667 0.0 
0.862069 0.066667 0.0 
0.896552 0.066667 0.0 
0.931034 0.066667 0.0 
0.965517 0.066667 0.0 
1.000000 0.066667 0.0 
0.000000 0.100000 0.0 
0.034483 0.100000 0.0 
0.068966 0.100000 0.0 
0.103448 0.100000 0.0 
0.137931 0.100000 0.0 
0.172414 0.100000 0.0 
0.206897 0.100000 0.0 
0.241379 0.100000 0.0 
0.275862 0.100000 0.0 
0.310345 0.100000 0.0 
0.344828 0.100000 0.0 
0.379310 0.100000 0.0 
0.413793 0.100000 0.0 
0.448276 0.100000 0.0 
0.482759 0.100000 0.0 
0.517241 0.100000 0.0 
0.551724 0.100000 0.0 
0.586207 0.100000 0.0 
0.620690 0.100000 0.0 
0.655172 0.100000 0.0 
0.689655 0.100000 0.0 
0.724138 0.100000 0.0 
0.758621 0.100000 0.0 
0.793103 0.100000 0.0 
0.827586 0.100000 0.0 
0.862069 0.100000 0.0 
0.896552 0.100000 0.0 
0.931034 0.100000 0.0 
0.965517 0.100000 0.0 
1.000000 0.100000 0.0 
0.000000 0.133333 0.0 
0.034483 0.133333 0.0 
0.068966 0.133333 0.0 
0.103448 0.133333 0.0 
0.137931 0.133333 0.0 
0.172414 0.133333 0.0 
0.206897 0.133333 0.0 
0.241379 0.133333 0.0 
0.275862 0.133333 0.0 
0.310345 0.133333 0.0 
0.344828 0.133333 0.0 
0.379310 0.133333 0.0 
0.413793 0.133333 0.0 
0.448276 0.133333 0.0 
0.482759 0.133333 0.0 
0.517241 0.133333 0.0 
0.551724 0.133333 0.0 
0.586207 0.133333 0.0 
0.620690 0.133333 0.0 
0.655172 0.133333 0.0 
0.689655 0.133333 0.0 
0.724138 0.133333 0.0 
0.758621 0.133333 0.0 
0.793103 0.133333 0.0 
0.827586 0.133333 0.0 
0.862069 0.133333 0.0 
0.896552 0.133333 0.0 
0.931034 0.133333 0.0 
0.965517 0.133333 0.0 
1.000000 0.133333 0.0 
0.000000 0.166667 0.0 
0.034483 0.166667 0.0 
0.068966 0.166667 0.0 
0.103448 0.166667 0.0 
0.137931 0.166667 0.0 
0.172414 0.166667 0.0 
0.206897 0.166667 0.0 
0.241379 0.166667 0.0 
0.275862 0.166667 0.0 
0.310345 0.166667 0.0 
0.344828 0.166667 0.0 
0.379310 0.166667 0.0 
0.413793 0.166667 0.0 
0.448276 0.166667 0.0 
0.482759 0.166667 0.0 
0.517241 0.166667 0.0 
0.551724 0.166667 0.0 
0.586207 0.166667 0.0 
0.620690 0.166667 0.0 
0.655172 0.166667 0.0 
0.689655 0.166667 0.0 
0.724138 0.166667 0.0 
0.758621 0.166667 0.0 
0.793103 0.166667 0.0 
0.827586 0.166667 0.0 
0.862069 0.166667 0.0 
0.896552 0.166667 0.0 
0.931034 0.166667 0.0 
0.965517 0.166667 0.0 
1.000000 0.166667 0.0 
0.000000 0.200000 0.0 
0.034483 0.200000 0.0 
0.068966 0.200000 0.0 
0.103448 0.200000 0.0 
0.137931 0.200000 0.0 
0.172414 0.200000 0.0 
0.206897 0.200000 0.0 
0.241379 0.200000 0.0 
0.275862 0.200000 0.0 
0.310345 0.200000 0.0 
0.344828 0.200000 0.0 
0.379310 0.200000 0.0 
0.413793 0.200000 0.0 
0.448276 0.200000 0.0 
0.482759 0.200000 0.0 
0.517241 0.200000 0.0 
0.551724 0.200000 0.0 
0.586207 0.200000 0.0 
0.620690 0.200000 0.0 
0.655172 0.200000 0.0 
0.689655 0.200000 0.0 
0.724138 0.200000 0.0 
0.758621 0.200000 0.0 
0.793103 0.200000 0.0 
0.827586 0.200000 0.0 
0.862069 0.200000 0.0 
0.896552 0.200000 0.0 
0.931034 0.200000 0.0 
0.965517 0.200000 0.0 
1.000000 0.200000 0.0 
0.000000 0.233333 0.0 
0.034483 0.233333 0.0 
0.068966 0.233333 0.0 
0.103448 0.233333 0.0 
0.137931 0.233333 0.0 
0.172414 0.233333 0.0 
0.206897 0.233333 0.0 
0.241379 0.233333 0.0 
0.275862 0.233333 0.0 
0.310345 0.233333 0.0 
0.344828 0.233333 0.0 
0.379310 0.233333 0.0 
0.413793 0.233333 0.0 
0.448276 0.233333 0.0 
0.482759 0.233333 0.0 
0.517241 0.233333 0.0 
0.551724 0.233333 0.0 
0.586207 0.233333 0.0 
0.620690 0.233333 0.0 
0.655172 0.233333 0.0 
0.689655 0.233333 0.0 
0.724138 0.233333 0.0 
0.758621 0.233333 0.0 
0.793103 0.233333 0.0 
0.827586 0.233333 0.0 
0.862069 0.233333 0.0 
0.896552 0.233333 0.0 
0.931034 0.233333 0.0 
0.965517 0.233333 0.0 
1.000000 0.233333 0.0 
0.000000 0.266667 0.0 
0.034483 0.266667 0.0 
0.068966 0.266667 0.0 
0.103448 0.266667 0.0 
0.137931 0.266667 0.0 
0.172414 0.266667 0.0 
0.206897 0.266667 0.0 
0.241379 0.266667 0.0 
0.275862 0.266667 0.0 
0.310345 0.266667 0.0 
0.344828 0.266667 0.0 
0.379310 0.266667 0.0 
0.413793 0.266667 0.0 
0.448276 0.266667 0.0 
0.482759 0.266667 0.0 
0.517241 0.266667 0.0 
0.551724 0.266667 0.0 
0.586207 0.266667 0.0 
0.620690 0.266667 0.0 
0.655172 0.266667 0.0 
0.689655 0.266667 0.0 
0.724138 0.266667 0.0 
0.758621 0.266667 0.0 
0.793103 0.266667 0.0 
0.827586 0.266667 0.0 
0.862069 0.266667 0.0 
0.896552 0.266667 0.0 
0.931034 0.266667 0.0 
0.965517 0.266667 0.0 
1.000000 0.266667 0.0 
0.000000 0.300000 0.0 
0.034483 0.300000 0.0 
0.068966 0.300000 0.0 
0.103448 0.300000 0.0 
0.137931 0.300000 0.0 
0.172414 0.300000 0.0 
0.206897 0.300000 0.0 
0.241379 0.300000 0.0 
0.275862 0.300000 0.0 
0.310345 0.300000 0.0 
0.344828 0.300000 0.0 
0.379310 0.300000 0.0 
0.413793 0.300000 0.0 
0.448276 0.300000 0.0 
0.482759 0.300000 0.0 
0.517241 0.300000 0.0 
0.551724 0.300000 0.0 
0.586207 0.300000 0.0 
0.620690 0.300000 0.0 
0.655172 0.300000 0.0 
0.689655 0.300000 0.0 
0.724138 0.300000 0.0 
0.758621 0.300000 0.0 
0.793103 0.300000 0.0 
0.827586 0.300000 0.0 
0.862069 0.300000 0.0 
0.896552 0.300000 0.0 
0.931034 0.300000 0.0 
0.965517 0.300000 0.0 
1.000000 0.300000 0.0 
0.000000 0.333333 0.0 
0.034483 0.333333 0.0 
0.068966 0.333333 0.0 
0.103448 0.333333 0.0 
0.137931 0.333333 0.0 
0.172414 0.333333 0.0 
0.206897 0.333333 0.0 
0.241379 0.333333 0.0 
0.275862 0.333333 0.0 
0.310345 0.333333 0.0 
0.344828 0.333333 0.0 
0.379310 0.333333 0.0 
0.413793 0.333333 0.0 
0.448276 0.333333 0.0 
0.482759 0.333333 0.0 
0.517241 0.333333 0.0 
0.551724 0.333333 0.0 
0.586207 0.333333 0.0 
0.620690 0.333333 0.0 
0.655172 0.333333 0.0 
0.689655 0.333333 0.0 
0.724138 0.333333 0.0 
0.758621 0.333333 0.0 
0.793103 0.333333 0.0 
0.827586 0.333333 0.0 
0.862069 0.333333 0.0 
0.896552 0.333333 0.0 
0.931034 0.333333 0.0 
0.965517 0.333333 0.0 
1.000000 0.333333 0.0 
0.000000 0.366667 0.0 
0.034483 0.366667 0.0 
0.068966 0.366667 0.0 
0.103448 0.366667 0.0 
0.137931 0.366667 0.0 
0.172414 0.366667 0.0 
0.206897 0.366667 0.0 
0.241379 0.366667 0.0 
0.275862 0.366667 0.0 
0.310345 0.366667 0.0 
0.344828 0.366667 0.0 
0.379310 0.366667 0.0 
0.413793 0.366667 0.0 
0.448276 0.366667 0.0 
0.482759 0.366667 0.0 
0.517241 0.366667 0.0 
0.551724 0.366667 0.0 
0.586207 0.366667 0.0 
0.620690 0.366667 0.0 
0.655172 0.366667 0.0 
0.689655 0.366667 0.0 
0.724138 0.366667 0.0 
0.758621 0.366667 0.0 
0.793103 0.366667 0.0 
0.827586 0.366667 0.0 
0.862069 0.366667 0.0 
0.896552 0.366667 0.0 
0.931034 0.366667 0.0 
0.965517 0.366667 0.0 
1.000000 0.366667 0.0 
0.000000 0.400000 0.0 
0.034483 0.400000 0.0 
0.068966 0.400000 0.0 
0.103448 0.400000 0.0 
0.137931 0.400000 0.0 
0.172414 0.400000 0.0 
0.206897 0.400000 0.0 
0.241379 0.400000 0.0 
0.275862 0.400000 0.0 
0.310345 0.400000 0.0 
0.344828 0.400000 0.0 
0.379310 0.400000 0.0 
0.413793 0.400000 0.0 
0.448276 0.400000 0.0 
0.482759 0.400000 0.0 
0.517241 0.400000 0.0 
0.551724 0.400000 0.0 
0.586207 0.400000 0.0 
0.620690 0.400000 0.0 
0.655172 0.400000 0.0 
0.689655 0.400000 0.0 
0.724138 0.400000 0.0 
0.758621 0.400000 0.0 
0.793103 0.400000 0.0 
0.827586 0.400000 0.0 
0.862069 0.400000 0.0 
0.896552 0.400000 0.0 
0.931034 0.400000 0.0 
0.965517 0.400000 0.0 
1.000000 0.400000 0.0 
0.000000 0.433333 0.0 
0.034483 0.433333 0.0 
0.068966 0.433333 0.0 
0.103448 0.433333 0.0 
0.137931 0.433333 0.0 
0.172414 0.433333 0.0 
0.206897 0.433333 0.0 
0.241379 0.433333 0.0 
0.275862 0.433333 0.0 
0.310345 0.433333 0.0 
0.344828 0.433333 0.0 
0.379310 0.433333 0.0 
0.413793 0.433333 0.0 
0.448276 0.433333 0.0 
0.482759 0.433333 0.0 
0.517241 0.433333 0.0 
0.551724 0.433333 0.0 
0.586207 0.433333 0.0 
0.620690 0.433333 0.0 
0.655172 0.433333 0.0 
0.689655 0.433333 0.0 
0.724138 0.433333 0.0 
0.758621 0.433333 0.0 
0.793103 0.433333 0.0 
0.827586 0.433333 0.0 
0.862069 0.433333 0.0 
0.896552 0.433333 0.0 
0.931034 0.433333 0.0 
0.965517 0.433333 0.0 
1.000000 0.433333 0.0 
0.000000 0.466667 0.0 
0.034483 0.466667 0.0 
0.068966 0.466667 0.0 
0.103448 0.466667 0.0 
0.137931 0.466667 0.0 
[...]
<PointData  Vectors="sigma"> 
<DataArray  type="Float64"  Name="sigma" NumberOfComponents="4" format="ascii"> 
-0.0198313   -0.0189843   0.010683   0.026825   
-0.0938163   -0.0415166   0.0309551   0.0974928   
-0.220357   -0.0550618   0.031936   0.206193   
-0.368349   -0.0729559   0.0174664   0.339184   
-0.514911   -0.0932383   -0.00551987   0.475299   
-0.649705   -0.1161   -0.0347451   0.603148   
-0.768821   -0.143522   -0.0714909   0.7188   
-0.869977   -0.178358   -0.120489   0.822834   
-0.950586   -0.226736   -0.195055   0.923921   
-0.972604   -0.277418   -0.315968   1.02597   
-0.87859   -0.359902   -0.616282   1.31326   
0.395462   0.174729   -0.996424   1.75966   
-9.62581   -5.43013   -4.23054   11.116   
65.7928   62.4394   21.1197   73.8745   
19.114   28.3171   10.2004   30.6283   
7.89628   10.4851   1.77261   9.94595   
5.40007   6.62947   0.961283   6.33113   
4.05183   5.15186   0.596266   4.81156   
3.20141   4.1662   0.440149   3.85354   
2.57053   3.40482   0.352095   3.13371   
2.06953   2.75656   0.297398   2.53814   
1.65542   2.16995   0.260867   2.01521   
1.30592   1.61372   0.235472   1.53899   
1.0089   1.06593   0.217361   1.10472   
0.758511   0.508714   0.204241   0.757236   
0.553553   -0.0744199   0.194613   0.683211   
0.397004   -0.700536   0.187393   1.01579   
0.296411   -1.38888   0.181677   1.58983   
0.265062   -2.16265   0.176571   2.32682   
-0.214733   -3.28217   0.171009   3.19401   
-0.0398192   -0.0864781   0.0304732   0.0916864   
-0.0816723   -0.080274   0.0728585   0.149944   
-0.126962   -0.0545619   0.0860618   0.185443   
-0.172908   -0.041614   0.0717237   0.199666   
-0.207178   -0.0383032   0.0357597   0.200725   
-0.214611   -0.0384651   -0.0189592   0.200899   
-0.176739   -0.0359037   -0.0954197   0.23129   
-0.0654805   -0.0217453   -0.205623   0.360804   
0.171608   0.024887   -0.377208   0.672797   
0.639285   0.150394   -0.683378   1.31764   
1.54531   0.520389   -1.25801   2.56951   
3.35901   1.43969   -2.73378   5.56241   
8.45978   5.78098   -5.97969   12.7809   
4.9569   15.8635   -1.20044   14.2096   
5.33037   10.9854   1.28869   9.77332   
4.95202   8.84375   1.81045   8.29296   
4.73431   7.42837   1.80416   7.22434   
3.81271   5.6   1.35501   5.48212   
3.08337   4.45826   1.05694   4.35754   
2.50165   3.5966   0.860366   3.52378   
2.02611   2.89066   0.725003   2.86027   
1.6274   2.26822   0.626716   2.29789   
1.28827   1.68926   0.551492   1.80262   
0.998846   1.12703   0.49057   1.36533   
0.754432   0.56124   0.437903   1.01785   
0.554455   -0.0257856   0.388737   0.880756   
0.402262   -0.651434   0.338712   1.09197   
0.305582   -1.33458   0.283133   1.58833   
0.277723   -2.09727   0.216212   2.27999   
-0.192691   -3.1949   0.199857   3.12229   
-0.045607   -0.19464   0.0297986   0.183716   
-0.0385644   -0.114987   0.0798182   0.171428   
-0.0280023   -0.0484698   0.0843198   0.152006   
-0.0014672   0.000741178   0.0556071   0.096334   
0.0495466   0.0373113   -0.00335883   0.0450799   
0.139104   0.0722719   -0.093659   0.202079   
0.287711   0.11962   -0.223354   0.460795   
0.524705   0.200265   -0.411913   0.848151   
0.890114   0.350682   -0.700088   1.43997   
1.41824   0.645359   -1.15948   2.35495   
2.0762   1.21287   -1.93801   3.81198   
1.9911   2.1999   -3.08356   5.74011   
1.05683   4.55585   -3.32721   7.09005   
0.548452   7.84175   -1.44656   7.98565   
2.3454   9.35425   0.62811   8.49982   
3.06669   8.59748   1.54185   8.00546   
3.12615   7.17796   1.72588   6.91321   
2.98682   5.87766   1.64318   5.83203   
2.59704   4.71558   1.42251   4.7755   
2.196   3.80898   1.22462   3.9326   
1.82341   3.05699   1.06347   3.23864   
1.48944   2.40042   0.933702   2.64964   
1.19389   1.79755   0.826454   2.13531   
0.935556   1.21979   0.733791   1.68444   
0.714282   0.64545   0.648832   1.31481   
0.531987   0.0562006   0.565195   1.10209   
0.393271   -0.565199   0.476257   1.17339   
0.30622   -1.23664   0.374294   1.55628   
0.28361   -1.97814   0.249363   2.17739   
-0.168671   -3.03346   0.223163   2.97793   
-0.0502981   -0.303696   0.0115633   0.282643   
-0.00441592   -0.141744   0.0527609   0.166842   
0.0516314   -0.026759   0.0413635   0.0994799   
0.128013   0.0607727   -0.00878733   0.111949   
0.233002   0.13487   -0.095237   0.261276   
0.376426   0.211203   -0.222054   0.504702   
0.570555   0.309576   -0.400065   0.851408   
0.826677   0.45764   -0.649726   1.33452   
1.14203   0.698639   -1.00291   2.00298   
1.46711   1.1004   -1.5018   2.91806   
1.57561   1.76004   -2.1466   4.0781   
1.14206   2.85038   -2.70261   5.29962   
0.351795   4.58268   -2.53374   6.22672   
0.285197   6.55532   -1.39672   6.85831   
0.73535   7.58466   -0.0475294   7.2455   
1.48785   7.59708   0.991596   7.18163   
1.91275   6.80452   1.46922   6.58943   
2.01878   5.79761   1.59296   5.79623   
1.94107   4.82582   1.54259   4.98275   
1.74397   3.9563   1.41949   4.22362   
1.50828   3.20294   1.2855   3.55814   
1.26747   2.53303   1.15844   2.9729   
1.03795   1.91693   1.04147   2.45281   
0.828092   1.32976   0.931979   1.98962   
0.643429   0.751305   0.825096   1.59292   
0.489133   0.164159   0.714647   1.31075   
0.37143   -0.447787   0.593044   1.24896   
0.298711   -1.10062   0.450624   1.49617   
0.282671   -1.81148   0.274458   2.0247   
-0.1439   -2.80681   0.239857   2.76904   
-0.0520367   -0.38094   -0.0148828   0.358698   
0.01613   -0.15044   0.00267413   0.159187   
0.101038   0.0121438   -0.0292748   0.108168   
0.206138   0.138567   -0.101453   0.252998   
0.335521   0.250735   -0.212694   0.476479   
0.492612   0.368863   -0.367575   0.776115   
0.677908   0.515953   -0.575517   1.17032   
0.882302   0.721642   -0.849846   1.68203   
1.07321   1.02632   -1.20361   2.33445   
1.16521   1.48424   -1.63101   3.13238   
1.02423   2.16772   -2.05769   4.02866   
0.585107   3.1536   -2.27851   4.90073   
0.0961393   4.4294   -2.02936   5.61764   
-0.111708   5.68969   -1.26871   6.15219   
0.119367   6.49989   -0.282766   6.45963   
0.549761   6.64544   0.576419   6.46587   
0.963962   6.25354   1.14282   6.15841   
1.20939   5.55782   1.41927   5.62791   
1.28868   4.773   1.50119   5.00521   
1.25178   4.0068   1.4751   4.37418   
1.14269   3.29488   1.39664   3.77475   
0.999011   2.63983   1.29717   3.2214   
0.843571   2.02787   1.18964   2.71274   
0.690837   1.44258   1.07768   2.2463   
0.550686   0.868053   0.959764   1.82816   
0.431015   0.289637   0.831166   1.48907   
0.33938   -0.306452   0.684457   1.31093   
0.284142   -0.933638   0.50916   1.4126   
0.275389   -1.60549   0.290702   1.83005   
-0.11947   -2.52682   0.249472   2.50678   
-0.0503224   -0.409679   -0.0428343   0.394027   
0.0250935   -0.132579   -0.0578922   0.177731   
0.12145   0.0693192   -0.112752   0.221981   
0.235405   0.231088   -0.204342   0.423892   
0.365332   0.378482   -0.333206   0.686675   
0.507814   0.534198   -0.502912   1.01525   
0.653885   0.722044   -0.718568   1.42331   
0.783224   0.96981   -0.98373   1.92291   
0.855703   1.31102   -1.29264   2.51831   
0.810593   1.78497   -1.6138   3.1952   
0.593768   2.43042   -1.86762   3.90902   
0.231313   3.26133   -1.92599   4.58952   
-0.138135   4.21193   -1.67202   5.16994   
-0.320691   5.10365   -1.10442   5.60768   
-0.247996   5.70581   -0.37259   5.86935   
0.0161154   5.89601   0.330643   5.91575   
0.327128   5.69462   0.870395   5.73982   
0.582095   5.22488   1.21202   5.38552   
0.736078   4.61719   1.38454   4.92061   
0.794247   3.96702   1.43934   4.40822   
0.780793   3.32444   1.42122   3.88913   
0.72073   2.7076   1.3604   3.38396   
0.635215   2.11755   1.27428   2.90065   
0.539851   1.54712   1.17065   2.44152   
0.446297   0.986317   1.05102   2.01141   
0.363808   0.424523   0.912506   1.62976   
0.300472   -0.148739   0.748508   1.35569   
0.264081   -0.743549   0.548679   1.31229   
0.262677   -1.36944   0.298081   1.60333   
-0.0962615   -2.20697   0.252135   2.20414   
-0.0457115   -0.385198   -0.0680462   0.38308   
0.0256895   -0.0843028   -0.118614   0.228343   
0.119127   0.144771   -0.196123   0.365098   
0.2263   0.334744   -0.302934   0.602345   
0.340638   0.511383   -0.441093   0.887152   
0.453673   0.697368   -0.612597   1.22539   
0.551713   0.915136   -0.817916   1.62602   
0.612587   1.18853   -1.05245   2.09349   
0.604911   1.54289   -1.30001   2.62358   
0.495673   2.00233   -1.52394   3.19839   
0.273111   2.58116   -1.66215   3.78422   
-0.0262153   3.26606   -1.6384   4.33665   
-0.308907   3.99528   -1.39811   4.81207   
-0.47228   4.65368   -0.952334   5.17672   
-0.463827   5.11361   -0.385246   5.40196   
-0.311575   5.29418   0.187002   5.46625   
-0.0881511   5.19355   0.671201   5.36564   
0.131486   4.86959   1.02307   5.12152   
0.302225   4.40291   1.24298   4.77298   
0.409074   3.86365   1.35469   4.36121   
0.457256   3.29923   1.38733   3.91911   
0.460421   2.73499   1.36526   3.46766   
0.433433   2.18063   1.30503   3.01782   
0.389612   1.63677   1.21593   2.5746   
0.339977   1.09928   1.10127   2.14212   
0.29361   0.56203   0.959669   1.73204   
0.258174   0.0183349   0.785633   1.38344   
0.240308   -0.538182   0.569581   1.20415   
0.245718   -1.11292   0.29726   1.35555   
-0.0749103   -1.86105   0.248479   1.87482   
-0.0391068   -0.310759   -0.0881776   0.330565   
0.0211029   -0.0061045   -0.172361   0.299561   
0.101815   0.237076   -0.270067   0.511118   
0.192057   0.44606   -0.387456   0.774953   
0.282232   0.643906   -0.527604   1.07128   
0.361392   0.851209   -0.691141   1.40733   
0.415173   1.08751   -0.875148   1.78919   
0.425076   1.37181   -1.07051   2.21751   
0.370819   1.72154   -1.25807   2.68534   
0.238209   2.14916   -1.4055   3.17647   
0.0317743   2.65526   -1.46868   3.6658   
-0.213937   3.21887   -1.40256   4.12275   
-0.438544   3.78977   -1.18138   4.51704   
-0.579073   4.29284   -0.817618   4.82236   
-0.601799   4.64956   -0.363908   5.01756   
-0.514935   4.80775   0.107224   5.0882   
-0.358713   4.75768   0.530686   5.03147   
-0.181123   4.5278   0.866935   4.85886   
-0.0198977   4.16611   1.10399   4.59305   
0.104903   3.72182   1.24925   4.2608   
0.188272   3.23385   1.31875   3.88609   
0.234568   2.72781   1.3292   3.48661   
0.252329   2.21766   1.29393   3.07325   
0.251025   1.70913   1.22148   2.65163   
0.239534   1.20292   1.11568   2.22497   
0.225576   0.697118   0.976063   1.79936   
0.215576   0.188793   0.798168   1.39737   
0.21456   -0.324765   0.57355   1.09912   
0.225801   -0.845031   0.289393   1.09869   
-0.0558159   -1.50214   0.239492   1.53224   
-0.0314039   -0.19431   -0.102311   0.253068   
0.0140484   0.0984058   -0.215094   0.38379   
0.0767168   0.343609   -0.329155   0.650093   
0.145013   0.561922   -0.45276   0.932885   
0.208298   0.772167   -0.589569   1.23352   
0.255331   0.991555   -0.739379   1.56053   
0.273438   1.23593   -0.89758   1.91867   
0.249099   1.51941   -1.05371   2.30717   
0.170846   1.85298   -1.18984   2.71907   
0.0347569   2.24147   -1.2804   3.14098   
-0.148852   2.6791   -1.29524   3.55407   
-0.352033   3.14466   -1.20768   3.93641   
-0.53383   3.59964   -1.00573   4.26596   
-0.654226   3.99302   -0.700887   4.52309   
-0.689822   4.27405   -0.328017   4.69196   
-0.641992   4.40739   0.0651275   4.7623   
-0.532575   4.38264   0.432792   4.73151   
-0.392402   4.21338   0.742453   4.60582   
-0.249655   3.92853   0.978522   4.39875   
-0.123537   3.56163   1.1395   4.12745   
-0.0232046   3.14278   1.23231   3.80872   
0.0499916   2.69476   1.26692   3.45612   
0.0994626   2.23255   1.25263   3.07885   
0.130832   1.76478   1.19613   2.68195   
0.150255   1.29558   1.1008   2.26753   
0.163447   0.826478   0.966523   1.83771   
0.175091   0.357902   0.789687   1.40246   
0.188347   -0.109551   0.563128   1.00968   
0.204173   -0.573916   0.275913   0.846539   
-0.0391697   -1.14172   0.226353   1.18913   
-0.0233486   -0.0459286   -0.110521   0.195516   
0.0065509   0.223816   -0.245296   0.478728   
0.0494869   0.461009   -0.371258   0.778243   
0.0947493   0.679663   -0.49738   1.07177   
0.132184   0.893825   -0.627539   1.37101   
0.151642   1.11677   -0.761243   1.68502   
0.142982   1.36045   -0.893556   2.01794   
0.0971231   1.63466   -1.01462   2.36878   
0.00841674   1.94556   -1.10944   2.73157   
-0.121908   2.2935   -1.15887   3.09574   
-0.282611   2.67031   -1.14272   3.44711   
-0.451863   3.05721   -1.04518   3.76953   
-0.601272   3.42502   -0.861134   4.04676   
-0.70401   3.73812   -0.600492   4.26411   
-0.743587   3.96215   -0.287534   4.40974   
-0.718516   4.0725   0.0449555   4.47591   
-0.64088   4.05984   0.364098   4.46011   
-0.530315   3.93042   0.644012   4.36555   
-0.407151   3.7018   0.869121   4.20029   
-0.287518   3.3968   1.03365   3.97528   
-0.181433   3.038   1.1388   3.70192   
-0.0931809   2.64449   1.18939   3.39004   
-0.0228344   2.23058   1.19102   3.04672   
0.0320395   1.80605   1.14822   2.67585   
0.0749579   1.37723   1.06341   2.27853   
0.109466   0.948223   0.936446   1.85421   
0.138339   0.522147   0.764356   1.40437   
0.162854   0.102348   0.541275   0.948295   
0.181932   -0.306426   0.258334   0.618833   
-0.0249961   -0.789259   0.21028   0.858184   
-0.0155   0.124018   -0.113485   0.237022   
-9.56788e-05   0.36402   -0.263249   0.583478   
0.0239403   0.585642   -0.39664   0.895264   
0.0476547   0.797069   -0.52233   1.19084   
0.0623024   1.00773   -0.64414   1.4837   
0.0594873   1.227   -0.761646   1.78225   
0.031625   1.46317   -0.87041   2.09008   
-0.0269891   1.72245   -0.962106   2.40645   
-0.118463   2.00763   -1.02499   2.72658   
-0.239336   2.31658   -1.04523   3.04233   
-0.37924   2.64071   -1.00949   3.34304   
-0.521381   2.96425   -0.908503   3.61667   
-0.64554   3.26507   -0.740716   3.85112   
-0.733086   3.51767   -0.514483   4.03537   
-0.772038   3.69797   -0.247416   4.16048   
-0.759956   3.78833   0.0371015   4.22043   
-0.70349   3.78094   0.314893   4.21281   
-0.61523   3.67838   0.565493   4.139   
-0.509585   3.49148   0.774741   4.00374   
-0.399366   3.23584   0.935135   3.8139   
-0.293901   2.9283   1.04455   3.57704   
-0.198642   2.58437   1.10425   3.29998   
-0.115761   2.21692   1.11687   2.9878   
-0.0451689   1.8359   1.08495   2.64326   
0.0144252   1.44882   1.00983   2.26664   
0.0645623   1.0615   0.891137   1.85602   
0.106202   0.679076   0.726407   1.4083   
0.138913   0.306975   0.510998   0.924254   
0.159972   -0.0479878   0.238092   0.453469   
-0.0131957   -0.452046   0.192411   0.556435   
-0.00823845   0.306037   -0.112178   0.366059   
-0.00523187   0.51302   -0.270338   0.696527   
0.00222648   0.713962   -0.407047   1.00261   
0.00729674   0.912339   -0.530051   1.29175   
0.00305492   1.11355   -0.642899   1.57371   
-0.016966   1.32343   -0.745398   1.85501   
-0.0581172   1.54713   -0.833972   2.13856   
-0.1237   1.78799   -0.902077   2.42376   
-0.213806   2.04652   -0.940941   2.70696   
-0.324239   2.31932   -0.940861   2.98195   
-0.446072   2.59825   -0.893169   3.2407   
-0.566394   2.87035   -0.792614   3.47421   
-0.670498   3.1187   -0.639526   3.67341   
-0.745033   3.32465   -0.440945   3.82997   
-0.781102   3.47084   -0.210095   3.93705   
-0.776082   3.54435   0.0357753   3.98989   
-0.733575   3.5388   0.278457   3.98621   
-0.661713   3.45496   0.501701   3.92632   
-0.570675   3.29964   0.693132   3.81282   
-0.470366   3.08367   0.844868   3.64995   
-0.368872   2.81963   0.953017   3.44256   
-0.271828   2.52001   1.01654   3.19522   
-0.18252   2.19604   1.03595   2.91142   
-0.102436   1.85728   1.01214   2.59297   
-0.0319969   1.51168   0.94551   2.23976   
0.028666   1.16613   0.835398   1.84957   
0.0789555   0.827096   0.679767   1.41819   
0.117031   0.50145   0.47509   0.939998   
0.138959   0.197372   0.216448   0.41399   
-0.00358563   -0.135231   0.173729   0.329182   
-0.00179134   0.492121   -0.107646   0.527096   
-0.00866819   0.665444   -0.268482   0.815418   
-0.0147826   0.842764   -0.40497   1.10224   
-0.0248744   1.02403   -0.523608   1.3774   
-0.0439904   1.21138   -0.627521   1.64439   
-0.0767681   1.40771   -0.716761   1.90705   
-0.126733   1.61555   -0.788673   2.16721   
-0.195532   1.83609   -0.838397   2.42429   
-0.282164   2.06829   -0.859635   2.67543   
-0.382423   2.30817   -0.845772   2.91591   
-0.488855   2.54836   -0.791338   3.13968   
-0.591498   2.77828   -0.693596   3.33995   
-0.679438   2.98485   -0.553865   3.50989   
-0.742877   3.15416   -0.378132   3.64317   
-0.775074   3.2734   -0.176636   3.73452   
-0.773553   3.33292   0.0375122   3.7801   
-0.74019   3.3276   0.250278   3.7778   
-0.680285   3.25735   0.44863   3.72731   
-0.601058   3.12654   0.621942   3.6299   
-0.510094   2.94285   0.762607   3.48803   
-0.414168   2.71579   0.865927   3.30475   
-0.318612   2.45543   0.929504   3.08301   
-0.227195   2.17146   0.952402   2.82513   
-0.142387   1.87272   0.934321   2.53236   
-0.0658326   1.5672   0.874915   2.20456   
0.00105255   1.2623   0.773312   1.84014   
0.0564483   0.965265   0.627841   1.43631   
0.0974511   0.683825   0.435965   0.990288   
0.119344   0.426904   0.194429   0.508871   
0.0040665   0.157924   0.155025   0.310504   
0.00373491   0.675962   -0.100867   0.696373   
-0.0105134   0.816802   -0.259729   0.937145   
-0.0270715   0.969318   -0.393113   1.19589   
-0.0488109   1.13102   -0.506161   1.451   
-0.0790582   1.30157   -0.601488   1.69959   
-0.120851   1.48155   -0.679327   1.94244   
-0.176275   1.67146   -0.737836   2.18007   
-0.245852   1.87088   -0.773582   2.41161   
-0.328024   2.07777   -0.782218   2.63474   
-0.418885   2.28792   -0.759394   2.84578   
-0.512291   2.49483   -0.701829   3.04013   
-0.600498   2.68978   -0.608382   3.21265   
-0.675276   2.86258   -0.48089   3.35815   
-0.729278   3.00265   -0.3245   3.4718   
-0.757324   3.10036   -0.14736   3.54949   
-0.757205   3.14839   0.0402868   3.58811   
-0.72982   3.14266   0.227385   3.58575   
-0.678667   3.0827   0.40336   3.54173   
-0.608915   2.97143   0.559134   3.45651   
-0.526378   2.81443   0.687672   3.3314   
-0.436651   2.619   0.784046   3.16822   
-0.344572   2.39332   0.845133   2.96886   
-0.25402   2.14571   0.869104   2.7349   
-0.168016   1.88424   0.854863   2.46729   
-0.0890201   1.61664   0.801552   2.16629   
-0.0193615   1.35041   0.70818   1.83158   
0.0382586   1.09313   0.573419   1.46322   
0.0802184   0.852928   0.395587   1.06535   
0.101394   0.638958   0.172823   0.665856   
0.0100153   0.425742   0.136894   0.483024   
0.00832271   0.852898   -0.0926755   0.863812   
-0.0110327   0.963571   -0.246007   1.05867   
-0.0351225   1.09143   -0.374053   1.28473   
-0.0652814   1.23244   -0.480653   1.51549   
-0.103376   1.38452   -0.567872   1.74303   
-0.15112   1.54653   -0.636033   1.96518   
-0.20949   1.71748   -0.683942   2.18099   
-0.278241   1.89577   -0.709286   2.38916   
-0.355563   2.07872   -0.709196   2.58756   
-0.437942   2.26214   -0.680958   2.77324   
-0.520333   2.44028   -0.622786   2.94262   
-0.596664   2.60594   -0.534561   3.09178   
-0.660629   2.75107   -0.418371   3.21673   
-0.70663   2.86749   -0.278696   3.31377   
-0.730635   2.94784   -0.122183   3.37967   
-0.730735   2.9865   0.0429688   3.41189   
-0.707288   2.98022   0.207869   3.40873   
-0.662638   2.92844   0.363828   3.36934   
-0.60054   2.83316   0.503093   3.29366   
-0.525488   2.69857   0.619301   3.18231   
-0.442093   2.53039   0.707623   3.03631   
-0.354655   2.33533   0.764634   2.85689   
-0.26696   2.12056   0.78802   2.6452   
-0.182288   1.89335   0.776216   2.40222   
-0.103591   1.66102   0.728063   2.12885   
-0.0337952   1.4309   0.642549   1.82635   
0.0238271   1.21058   0.518672   1.4981   
0.0652424   1.00821   0.355464   1.155   
0.0852251   0.832774   0.152188   0.836233   