<VTKFile type="UnstructuredGrid"  version="0.1"   > 
<UnstructuredGrid> 
<Piece  NumberOfPoints="  7200" NumberOfCells=" 7021"> 
<Points> 
<DataArray  type="Float64"  NumberOfComponents="3"  format="ascii" > 
0.000000 0.000000 0.0 
1.694915 0.000000 0.0 
3.389831 0.000000 0.0 
5.084746 0.000000 0.0 
6.779661 0.000000 0.0 
8.474576 0.000000 0.0 
10.169492 0.000000 0.0 
11.864407 0.000000 0.0 
13.559322 0.000000 0.0 
15.254237 0.000000 0.0 
16.949153 0.000000 0.0 
18.644068 0.000000 0.0 
20.338983 0.000000 0.0 
22.033898 0.000000 0.0 
23.728814 0.000000 0.0 
25.423729 0.000000 0.0 
27.118644 0.000000 0.0 
28.813559 0.000000 0.0 
30.508475 0.000000 0.0 
32.203390 0.000000 0.0 
33.898305 0.000000 0.0 
35.593220 0.000000 0.0 
37.288136 0.000000 0.0 
38.983051 0.000000 0.0 
40.677966 0.000000 0.0 
42.372881 0.000000 0.0 
44.067797 0.000000 0.0 
45.762712 0.000000 0.0 
47.457627 0.000000 0.0 
49.152542 0.000000 0.0 
50.847458 0.000000 0.0 
52.542373 0.000000 0.0 
54.237288 0.000000 0.0 
55.932203 0.000000 0.0 
57.627119 0.000000 0.0 
59.322034 0.000000 0.0 
61.016949 0.000000 0.0 
62.711864 0.000000 0.0 
64.406780 0.000000 0.0 
66.101695 0.000000 0.0 
67.796610 0.000000 0.0 
69.491525 0.000000 0.0 
71.186441 0.000000 0.0 
72.881356 0.000000 0.0 
74.576271 0.000000 0.0 
76.271186 0.000000 0.0 
77.966102 0.000000 0.0 
79.661017 0.000000 0.0 
81.355932 0.000000 0.0 
83.050847 0.000000 0.0 
84.745763 0.000000 0.0 
86.440678 0.000000 0.0 
88.135593 0.000000 0.0 
89.830508 0.000000 0.0 
91.525424 0.000000 0.0 
93.220339 0.000000 0.0 
94.915254 0.000000 0.0 
96.610169 0.000000 0.0 
98.305085 0.000000 0.0 
100.000000 0.000000 0.0 
0.000000 1.680672 0.0 
1.694915 1.680672 0.0 
3.389831 1.680672 0.0 
5.084746 1.680672 0.0 
6.779661 1.680672 0.0 
8.474576 1.680672 0.0 
10.169492 1.680672 0.0 
11.864407 1.680672 0.0 
13.559322 1.680672 0.0 
15.254237 1.680672 0.0 
16.949153 1.680672 0.0 
18.644068 1.680672 0.0 
20.338983 1.680672 0.0 
22.033898 1.680672 0.0 
23.728814 1.680672 0.0 
25.423729 1.680672 0.0 
27.118644 1.680672 0.0 
28.813559 1.680672 0.0 
30.508475 1.680672 0.0 
32.203390 1.680672 0.0 
33.898305 1.680672 0.0 
35.593220 1.680672 0.0 
37.288136 1.680672 0.0 
38.983051 1.680672 0.0 
40.677966 1.680672 0.0 
42.372881 1.680672 0.0 
44.067797 1.680672 0.0 
45.762712 1.680672 0.0 
47.457627 1.680672 0.0 
49.152542 1.680672 0.0 
50.847458 1.680672 0.0 
52.542373 1.680672 0.0 
54.237288 1.680672 0.0 
55.932203 1.680672 0.0 
57.627119 1.680672 0.0 
59.322034 1.680672 0.0 
61.016949 1.680672 0.0 
62.711864 1.680672 0.0 
64.406780 1.680672 0.0 
66.101695 1.680672 0.0 
67.796610 1.680672 0.0 
69.491525 1.680672 0.0 
71.186441 1.680672 0.0 
72.881356 1.680672 0.0 
74.576271 1.680672 0.0 
76.271186 1.680672 0.0 
77.966102 1.680672 0.0 
79.661017 1.680672 0.0 
81.355932 1.680672 0.0 
83.050847 1.680672 0.0 
84.745763 1.680672 0.0 
86.440678 1.680672 0.0 
88.135593 1.680672 0.0 
89.830508 1.680672 0.0 
91.525424 1.680672 0.0 
93.220339 1.680672 0.0 
94.915254 1.680672 0.0 
96.610169 1.680672 0.0 
98.305085 1.680672 0.0 
100.000000 1.680672 0.0 
0.000000 3.361345 0.0 
1.694915 3.361345 0.0 
3.389831 3.361345 0.0 
5.084746 3.361345 0.0 
6.779661 3.361345 0.0 
8.474576 3.361345 0.0 
10.169492 3.361345 0.0 
11.864407 3.361345 0.0 
13.559322 3.361345 0.0 
15.254237 3.361345 0.0 
16.949153 3.361345 0.0 
18.644068 3.361345 0.0 
20.338983 3.361345 0.0 
22.033898 3.361345 0.0 
23.728814 3.361345 0.0 
25.423729 3.361345 0.0 
27.118644 3.361345 0.0 
28.813559 3.361345 0.0 
30.508475 3.361345 0.0 
32.203390 3.361345 0.0 
33.898305 3.361345 0.0 
35.593220 3.361345 0.0 
37.288136 3.361345 0.0 
38.983051 3.361345 0.0 
40.677966 3.361345 0.0 
42.372881 3.361345 0.0 
44.067797 3.361345 0.0 
45.762712 3.361345 0.0 
47.457627 3.361345 0.0 
49.152542 3.361345 0.0 
50.847458 3.361345 0.0 
52.542373 3.361345 0.0 
54.237288 3.361345 0.0 
55.932203 3.361345 0.0 
57.627119 3.361345 0.0 
59.322034 3.361345 0.0 
61.016949 3.361345 0.0 
62.711864 3.361345 0.0 
64.406780 3.361345 0.0 
66.101695 3.361345 0.0 
67.796610 3.361345 0.0 
69.491525 3.361345 0.0 
71.186441 3.361345 0.0 
72.881356 3.361345 0.0 
74.576271 3.361345 0.0 
76.271186 3.361345 0.0 
77.966102 3.361345 0.0 
79.661017 3.361345 0.0 
81.355932 3.361345 0.0 
83.050847 3.361345 0.0 
84.745763 3.361345 0.0 
86.440678 3.361345 0.0 
88.135593 3.361345 0.0 
89.830508 3.361345 0.0 
91.525424 3.361345 0.0 
93.220339 3.361345 0.0 
94.915254 3.361345 0.0 
96.610169 3.361345 0.0 
98.305085 3.361345 0.0 
100.000000 3.361345 0.0 
0.000000 5.042017 0.0 
1.694915 5.042017 0.0 
3.389831 5.042017 0.0 
5.084746 5.042017 0.0 
6.779661 5.042017 0.0 
8.474576 5.042017 0.0 
10.169492 5.042017 0.0 
11.864407 5.042017 0.0 
13.559322 5.042017 0.0 
15.254237 5.042017 0.0 
16.949153 5.042017 0.0 
18.644068 5.042017 0.0 
20.338983 5.042017 0.0 
22.033898 5.042017 0.0 
23.728814 5.042017 0.0 
25.423729 5.042017 0.0 
27.118644 5.042017 0.0 
28.813559 5.042017 0.0 
30.508475 5.042017 0.0 
32.203390 5.042017 0.0 
33.898305 5.042017 0.0 
35.593220 5.042017 0.0 
37.288136 5.042017 0.0 
38.983051 5.042017 0.0 
40.677966 5.042017 0.0 
42.372881 5.042017 0.0 
44.067797 5.042017 0.0 
45.762712 5.042017 0.0 
47.457627 5.042017 0.0 
49.152542 5.042017 0.0 
50.847458 5.042017 0.0 
52.542373 5.042017 0.0 
54.237288 5.042017 0.0 
55.932203 5.042017 0.0 
57.627119 5.042017 0.0 
59.322034 5.042017 0.0 
61.016949 5.042017 0.0 
62.711864 5.042017 0.0 
64.406780 5.042017 0.0 
66.101695 5.042017 0.0 
67.796610 5.042017 0.0 
69.491525 5.042017 0.0 
71.186441 5.042017 0.0 
72.881356 5.042017 0.0 
74.576271 5.042017 0.0 
76.271186 5.042017 0.0 
77.966102 5.042017 0.0 
79.661017 5.042017 0.0 
81.355932 5.042017 0.0 
83.050847 5.042017 0.0 
84.745763 5.042017 0.0 
86.440678 5.042017 0.0 
88.135593 5.042017 0.0 
89.830508 5.042017 0.0 
91.525424 5.042017 0.0 
93.220339 5.042017 0.0 
94.915254 5.042017 0.0 
96.610169 5.042017 0.0 
98.305085 5.042017 0.0 
100.000000 5.042017 0.0 
0.000000 6.722689 0.0 
1.694915 6.722689 0.0 
3.389831 6.722689 0.0 
5.084746 6.722689 0.0 
6.779661 6.722689 0.0 
8.474576 6.722689 0.0 
10.169492 6.722689 0.0 
11.864407 6.722689 0.0 
13.559322 6.722689 0.0 
15.254237 6.722689 0.0 
16.949153 6.722689 0.0 
18.644068 6.722689 0.0 
20.338983 6.722689 0.0 
22.033898 6.722689 0.0 
23.728814 6.722689 0.0 
25.423729 6.722689 0.0 
27.118644 6.722689 0.0 
28.813559 6.722689 0.0 
30.508475 6.722689 0.0 
32.203390 6.722689 0.0 
33.898305 6.722689 0.0 
35.593220 6.722689 0.0 
37.288136 6.722689 0.0 
38.983051 6.722689 0.0 
40.677966 6.722689 0.0 
42.372881 6.722689 0.0 
44.067797 6.722689 0.0 
45.762712 6.722689 0.0 
47.457627 6.722689 0.0 
49.152542 6.722689 0.0 
50.847458 6.722689 0.0 
52.542373 6.722689 0.0 
54.237288 6.722689 0.0 
55.932203 6.722689 0.0 
57.627119 6.722689 0.0 
59.322034 6.722689 0.0 
61.016949 6.722689 0.0 
62.711864 6.722689 0.0 
64.406780 6.722689 0.0 
66.101695 6.722689 0.0 
67.796610 6.722689 0.0 
69.491525 6.722689 0.0 
71.186441 6.722689 0.0 
72.881356 6.722689 0.0 
74.576271 6.722689 0.0 
76.271186 6.722689 0.0 
77.966102 6.722689 0.0 
79.661017 6.722689 0.0 
81.355932 6.722689 0.0 
83.050847 6.722689 0.0 
84.745763 6.722689 0.0 
86.440678 6.722689 0.0 
88.135593 6.722689 0.0 
89.830508 6.722689 0.0 
91.525424 6.722689 0.0 
93.220339 6.722689 0.0 
94.915254 6.722689 0.0 
96.610169 6.722689 0.0 
98.305085 6.722689 0.0 
100.000000 6.722689 0.0 
0.000000 8.403361 0.0 
1.694915 8.403361 0.0 
3.389831 8.403361 0.0 
5.084746 8.403361 0.0 
6.779661 8.403361 0.0 
8.474576 8.403361 0.0 
10.169492 8.403361 0.0 
11.864407 8.403361 0.0 
13.559322 8.403361 0.0 
15.254237 8.403361 0.0 
16.949153 8.403361 0.0 
18.644068 8.403361 0.0 
20.338983 8.403361 0.0 
22.033898 8.403361 0.0 
23.728814 8.403361 0.0 
25.423729 8.403361 0.0 
27.118644 8.403361 0.0 
28.813559 8.403361 0.0 
30.508475 8.403361 0.0 
32.203390 8.403361 0.0 
33.898305 8.403361 0.0 
35.593220 8.403361 0.0 
37.288136 8.403361 0.0 
38.983051 8.403361 0.0 
40.677966 8.403361 0.0 
42.372881 8.403361 0.0 
44.067797 8.403361 0.0 
45.762712 8.403361 0.0 
47.457627 8.403361 0.0 
49.152542 8.403361 0.0 
50.847458 8.403361 0.0 
52.542373 8.403361 0.0 
54.237288 8.403361 0.0 
55.932203 8.403361 0.0 
57.627119 8.403361 0.0 
59.322034 8.403361 0.0 
61.016949 8.403361 0.0 
62.711864 8.403361 0.0 
64.406780 8.403361 0.0 
66.101695 8.403361 0.0 
67.796610 8.403361 0.0 
69.491525 8.403361 0.0 
71.186441 8.403361 0.0 
72.881356 8.403361 0.0 
74.576271 8.403361 0.0 
76.271186 8.403361 0.0 
77.966102 8.403361 0.0 
79.661017 8.403361 0.0 
81.355932 8.403361 0.0 
83.050847 8.403361 0.0 
84.745763 8.403361 0.0 
86.440678 8.403361 0.0 
88.135593 8.403361 0.0 
89.830508 8.403361 0.0 
91.525424 8.403361 0.0 
93.220339 8.403361 0.0 
94.915254 8.403361 0.0 
96.610169 8.403361 0.0 
98.305085 8.403361 0.0 
100.000000 8.403361 0.0 
0.000000 10.084034 0.0 
1.694915 10.084034 0.0 
3.389831 10.084034 0.0 
5.084746 10.084034 0.0 
6.779661 10.084034 0.0 
8.474576 10.084034 0.0 
10.169492 10.084034 0.0 
11.864407 10.084034 0.0 
13.559322 10.084034 0.0 
15.254237 10.084034 0.0 
16.949153 10.084034 0.0 
18.644068 10.084034 0.0 
20.338983 10.084034 0.0 
22.033898 10.084034 0.0 
23.728814 10.084034 0.0 
25.423729 10.084034 0.0 
27.118644 10.084034 0.0 
28.813559 10.084034 0.0 
30.508475 10.084034 0.0 
32.203390 10.084034 0.0 
33.898305 10.084034 0.0 
35.593220 10.084034 0.0 
37.288136 10.084034 0.0 
38.983051 10.084034 0.0 
40.677966 10.084034 0.0 
42.372881 10.084034 0.0 
44.067797 10.084034 0.0 
45.762712 10.084034 0.0 
47.457627 10.084034 0.0 
49.152542 10.084034 0.0 
50.847458 10.084034 0.0 
52.542373 10.084034 0.0 
54.237288 10.084034 0.0 
55.932203 10.084034 0.0 
57.627119 10.084034 0.0 
59.322034 10.084034 0.0 
61.016949 10.084034 0.0 
62.711864 10.084034 0.0 
64.406780 10.084034 0.0 
66.101695 10.084034 0.0 
67.796610 10.084034 0.0 
69.491525 10.084034 0.0 
71.186441 10.084034 0.0 
72.881356 10.084034 0.0 
74.576271 10.084034 0.0 
76.271186 10.084034 0.0 
77.966102 10.084034 0.0 
[...]
<PointData  Vectors="sigma"> 
<DataArray  type="Float64"  Name="sigma" NumberOfComponents="4" format="ascii"> 
0.633383   2.11128   0.528403   2.08783   
0.421225   1.40408   0.366317   1.4   
0.366763   1.22254   0.304109   1.20756   
0.336771   1.12257   0.270359   1.10218   
0.319088   1.06363   0.247702   1.03817   
0.307351   1.0245   0.230721   0.994427   
0.299195   0.997317   0.216991   0.96282   
0.293363   0.977878   0.205289   0.939076   
0.28915   0.963835   0.194907   0.920792   
0.286118   0.953728   0.185402   0.906478   
0.283977   0.946591   0.176475   0.895152   
0.282524   0.941747   0.167918   0.886133   
0.28161   0.938701   0.159578   0.878927   
0.281122   0.937074   0.151342   0.873166   
0.28097   0.936568   0.143125   0.868568   
0.281082   0.936939   0.134863   0.86491   
0.281396   0.937987   0.126508   0.862015   
0.281862   0.939541   0.118026   0.85974   
0.282436   0.941454   0.109393   0.857966   
0.28308   0.943598   0.100594   0.856596   
0.283759   0.945865   0.0916229   0.85555   
0.284446   0.948155   0.0824788   0.854761   
0.285115   0.950384   0.0731669   0.854173   
0.285744   0.95248   0.0636976   0.853742   
0.286314   0.95438   0.0540849   0.853428   
0.286809   0.95603   0.0443466   0.853202   
0.287216   0.957387   0.0345032   0.85304   
0.287525   0.958417   0.0245776   0.852923   
0.287729   0.959096   0.0145941   0.852838   
0.287822   0.959406   0.00457866   0.852776   
0.287803   0.959342   -0.0054426   0.852734   
0.287672   0.958905   -0.0154432   0.852713   
0.287432   0.958105   -0.0253972   0.852718   
0.287088   0.956961   -0.0352795   0.852758   
0.28665   0.955501   -0.0450664   0.852848   
0.286129   0.953762   -0.0547365   0.853008   
0.285537   0.95179   -0.0642705   0.853262   
0.284892   0.949639   -0.0736524   0.853644   
0.284212   0.947374   -0.0828698   0.85419   
0.283521   0.945069   -0.0919146   0.854949   
0.282843   0.942809   -0.100784   0.855975   
0.282207   0.940691   -0.109479   0.857338   
0.281648   0.938827   -0.118011   0.859117   
0.281202   0.937341   -0.126395   0.86141   
0.280914   0.936379   -0.134658   0.864335   
0.280833   0.93611   -0.142835   0.868034   
0.281019   0.936731   -0.150977   0.872685   
0.281545   0.938484   -0.159148   0.878509   
0.282498   0.941661   -0.167436   0.885786   
0.283991   0.946638   -0.175954   0.894884   
0.286172   0.953906   -0.184855   0.906292   
0.289241   0.964136   -0.19435   0.920688   
0.293487   0.978288   -0.204736   0.939052   
0.299345   0.997817   -0.216457   0.962868   
0.307519   1.02506   -0.230218   0.994535   
0.319264   1.06421   -0.247243   1.03832   
0.336939   1.12313   -0.269953   1.10234   
0.366902   1.22301   -0.303763   1.20767   
0.421299   1.40433   -0.366027   1.39997   
0.633275   2.11092   -0.528125   2.08733   
0.00684242   1.41575   0.117062   1.42682   
0.272068   1.4415   0.3212   1.43849   
0.286358   1.24458   0.297653   1.24112   
0.285586   1.14666   0.272905   1.13682   
0.280969   1.08249   0.251652   1.0661   
0.27662   1.04006   0.234488   1.01759   
0.272966   1.01045   0.220193   0.982427   
0.270038   0.989346   0.207894   0.956152   
0.267735   0.974139   0.196976   0.936064   
0.265953   0.963224   0.18701   0.920477   
0.2646   0.955537   0.177695   0.908271   
0.263598   0.950333   0.168813   0.898668   
0.262887   0.947069   0.160202   0.891107   
0.262415   0.945332   0.151741   0.885167   
0.262138   0.944797   0.143339   0.880527   
0.262021   0.945203   0.134925   0.876935   
0.262031   0.946333   0.126448   0.874188   
0.262143   0.948003   0.11787   0.872121   
0.262332   0.950055   0.109164   0.8706   
0.262577   0.952355   0.100313   0.86951   
0.26286   0.954783   0.0913072   0.86876   
0.263164   0.957236   0.0821453   0.868269   
0.263474   0.959624   0.0728302   0.867971   
0.263778   0.961869   0.0633704   0.867813   
0.264064   0.963904   0.0537784   0.867747   
0.264324   0.965672   0.0440704   0.867736   
0.264549   0.967128   0.0342653   0.867752   
0.264732   0.968236   0.0243845   0.86777   
0.264869   0.968968   0.0144509   0.867774   
0.264956   0.969308   0.00448886   0.867754   
0.264991   0.969248   -0.00547688   0.867704   
0.264974   0.968789   -0.0154213   0.867625   
0.264905   0.967943   -0.02532   0.867525   
0.264786   0.966729   -0.0351491   0.867414   
0.264622   0.965177   -0.0448866   0.867311   
0.264418   0.963325   -0.0545123   0.867241   
0.264179   0.961222   -0.0640084   0.867234   
0.263914   0.958926   -0.0733603   0.86733   
0.263632   0.956504   -0.082557   0.867573   
0.263345   0.954036   -0.0915918   0.868021   
0.263064   0.951611   -0.100463   0.86874   
0.262804   0.949332   -0.109174   0.869808   
0.262579   0.947316   -0.117736   0.871319   
0.262407   0.945698   -0.126167   0.873383   
0.262307   0.944631   -0.134494   0.876136   
0.262298   0.944293   -0.142754   0.879738   
0.262402   0.944898   -0.150997   0.884389   
0.262643   0.946699   -0.15929   0.890335   
0.263042   0.95001   -0.167717   0.897889   
0.263619   0.955231   -0.176387   0.907459   
0.264386   0.962885   -0.185441   0.919586   
0.265328   0.973683   -0.195059   0.935016   
0.266374   0.988636   -0.205472   0.954812   
0.267294   1.00925   -0.21697   0.980553   
0.267474   1.03789   -0.229837   1.0147   
0.264938   1.07829   -0.244306   1.06127   
0.254183   1.13784   -0.258244   1.12701   
0.205749   1.22092   -0.26899   1.22427   
-0.0108256   1.35695   -0.138558   1.38337   
0.0068283   1.4158   -0.11688   1.42683   
0.00349963   1.21806   0.0523542   1.21969   
0.0890019   1.27691   0.184725   1.2756   
0.181252   1.2293   0.245615   1.22564   
0.214174   1.15036   0.248698   1.14384   
0.229305   1.0934   0.240168   1.08186   
0.236336   1.05174   0.228704   1.03458   
0.239802   1.02169   0.217219   0.998951   
0.24151   0.999826   0.206369   0.971739   
0.24232   0.983922   0.196226   0.950742   
0.242653   0.972448   0.186682   0.934408   
0.242735   0.964346   0.177596   0.921642   
0.242686   0.958858   0.168833   0.911657   
0.242576   0.955419   0.160279   0.903867   
0.242445   0.953596   0.151838   0.897828   
0.242316   0.953047   0.143433   0.893195   
0.242201   0.953495   0.135005   0.889694   
0.242107   0.954709   0.126507   0.887105   
0.242038   0.956495   0.117906   0.885247   
0.241993   0.958685   0.109176   0.883969   
0.241973   0.961137   0.100302   0.883146   
0.241975   0.963724   0.0912763   0.882673   
0.241998   0.966336   0.0820964   0.882461   
0.242037   0.968879   0.0727662   0.882433   
0.242091   0.971269   0.0632943   0.882527   
0.242157   0.973435   0.0536933   0.88269   
0.242231   0.975319   0.0439792   0.882878   
0.242312   0.976871   0.034171   0.883056   
0.242396   0.978053   0.0242897   0.883197   
0.242481   0.978836   0.0143581   0.883281   
0.242565   0.979202   0.00440033   0.883297   
0.242647   0.979144   -0.00555918   0.883237   
0.242723   0.978662   -0.0154957   0.883103   
0.242794   0.977768   -0.0253849   0.882903   
0.242858   0.976483   -0.0352033   0.88265   
0.242913   0.974838   -0.0449291   0.882366   
0.242959   0.972873   -0.0545421   0.882081   
0.242995   0.970638   -0.0640247   0.881829   
0.24302   0.968196   -0.0733621   0.881656   
0.243032   0.965617   -0.0825432   0.881615   
0.243031   0.962984   -0.0915608   0.881769   
0.243013   0.960391   -0.100412   0.882194   
0.242976   0.957948   -0.109101   0.882979   
0.242913   0.955777   -0.117634   0.884228   
0.242816   0.954017   -0.126029   0.886063   
0.242674   0.952832   -0.134306   0.888632   
0.242467   0.952407   -0.142499   0.89211   
0.242166   0.952964   -0.150647   0.896712   
0.241727   0.954767   -0.158799   0.902702   
0.241078   0.958139   -0.167016   0.91041   
0.240104   0.963485   -0.175365   0.920259   
0.238612   0.971328   -0.183913   0.932799   
0.236274   0.982358   -0.192712   0.948768   
0.232489   0.997514   -0.201748   0.969165   
0.226128   1.0181   -0.210818   0.99538   
0.214894   1.04592   -0.219219   1.02934   
0.193896   1.08344   -0.224548   1.07361   
0.151965   1.13237   -0.22072   1.13112   
0.064193   1.19479   -0.177495   1.20394   
0.0144901   1.25505   -0.0583473   1.25195   
0.00350212   1.21842   -0.0522195   1.22003   
-0.0116925   1.11456   0.0267754   1.12141   
0.040115   1.17325   0.119382   1.1721   
0.100098   1.16907   0.181612   1.16562   
0.147949   1.13299   0.209981   1.12703   
0.175939   1.09101   0.21646   1.0816   
0.192935   1.056   0.214069   1.04216   
0.203429   1.02851   0.207933   1.0098   
0.210103   1.00761   0.200346   0.983938   
0.214432   0.991994   0.192255   0.963434   
0.21727   0.980552   0.184044   0.947239   
0.219131   0.972404   0.175848   0.93449   
0.220334   0.966869   0.167693   0.924506   
0.221083   0.963411   0.15956   0.916746   
0.221517   0.96161   0.151415   0.910785   
0.22173   0.961121   0.143218   0.90628   
0.22179   0.961664   0.134935   0.902953   
0.221744   0.963002   0.126538   0.900577   
0.221629   0.964933   0.118002   0.898961   
0.221472   0.967284   0.109312   0.897948   
0.221293   0.969905   0.100458   0.897401   
0.22111   0.972664   0.0914367   0.897207   
0.220935   0.975446   0.0822496   0.897269   
0.220776   0.978151   0.072903   0.897504   
0.220643   0.980692   0.0634077   0.897842   
0.220539   0.982995   0.053778   0.898223   
0.220471   0.984997   0.0440316   0.898599   
0.220439   0.986647   0.0341886   0.89893   
0.220446   0.987903   0.0242713   0.899187   
0.220492   0.988737   0.0143036   0.899346   
0.220577   0.98913   0.00431045   0.899393   
0.220697   0.989071   -0.00568255   0.899322   
0.220852   0.988563   -0.0156498   0.899134   
0.221037   0.987618   -0.0255659   0.898837   
0.221248   0.986257   -0.0354067   0.898447   
0.221478   0.984513   -0.0451489   0.897989   
0.22172   0.982427   -0.0547713   0.897496   
0.221967   0.980053   -0.064255   0.897006   
0.222207   0.977455   -0.0735835   0.896571   
0.222429   0.974707   -0.0827439   0.89625   
0.222619   0.971895   -0.0917263   0.896113   
0.222757   0.969119   -0.100525   0.896242   
0.222823   0.96649   -0.10914   0.896733   
0.222789   0.964135   -0.117572   0.897699   
0.222619   0.962202   -0.125831   0.89927   
0.222269   0.960854   -0.133929   0.901602   
0.221676   0.960283   -0.141883   0.904878   
0.220758   0.960712   -0.14971   0.909316   
0.219398   0.962404   -0.15743   0.915183   
0.217429   0.965675   -0.165052   0.922802   
0.214602   0.970908   -0.172568   0.932576   
0.210539   0.978581   -0.179922   0.945004   
0.204646   0.989285   -0.186958   0.960714   
0.195958   1.00376   -0.193312   0.980482   
0.182877   1.02288   -0.198174   1.00523   
0.162728   1.04758   -0.199721   1.03591   
0.131336   1.07835   -0.194057   1.07305   
0.083466   1.11439   -0.171592   1.11542   
0.032818   1.14961   -0.118673   1.15204   
0.00256783   1.16264   -0.034409   1.16289   
-0.0116752   1.11517   -0.0266674   1.122   
-0.0109546   1.0503   0.0166393   1.05621   
0.0171615   1.10021   0.0821832   1.10097   
0.058868   1.1141   0.136397   1.11127   
0.0987615   1.10156   0.170742   1.09629   
0.130189   1.07759   0.187975   1.06951   
0.152315   1.05213   0.194027   1.04061   
0.16769   1.02981   0.193948   1.01429   
0.178362   1.01163   0.190547   0.991812   
0.185812   0.997472   0.185356   0.973245   
0.191028   0.986838   0.179178   0.958197   
0.194672   0.979165   0.172428   0.946171   
0.197191   0.973939   0.165318   0.936686   
0.198893   0.970715   0.15795   0.929312   
0.199997   0.969114   0.150368   0.923684   
0.200659   0.968818   0.142588   0.919491   
0.200997   0.969555   0.134614   0.916472   
0.201098   0.971092   0.126441   0.914406   
0.20103   0.973228   0.118066   0.913102   
0.200846   0.975786   0.109486   0.912401   
0.200588   0.978613   0.100702   0.912164   
0.200291   0.981574   0.0917176   0.912272   
0.199982   0.98455   0.0825415   0.912622   
0.199682   0.987437   0.0731847   0.913126   
0.19941   0.990145   0.0636622   0.91371   
0.199179   0.992597   0.0539918   0.914309   
0.199001   0.994726   0.0441943   0.914871   
0.198883   0.99648   0.0342925   0.915354   
0.198831   0.997817   0.0243114   0.915723   
0.198849   0.998704   0.0142771   0.915953   
0.198936   0.999122   0.00421678   0.916031   
0.199092   0.999062   -0.00584174   0.915947   
0.199312   0.998524   -0.0158707   0.915704   
0.199591   0.997521   -0.0258427   0.91531   
0.199921   0.996076   -0.0357311   0.914784   
0.20029   0.994222   -0.0455105   0.914153   
0.200687   0.992004   -0.0551572   0.91345   
0.201094   0.989475   -0.0646493   0.912721   
0.201493   0.986702   -0.0739675   0.91202   
0.201862   0.983763   -0.0830949   0.91141   
0.202171   0.980746   -0.0920175   0.910966   
0.20239   0.977754   -0.100724   0.910776   
0.202477   0.9749   -0.109207   0.91094   
0.202383   0.972317   -0.117461   0.911575   
0.202048   0.970149   -0.125481   0.912816   
0.201394   0.968565   -0.133264   0.914818   
0.200323   0.967752   -0.140806   0.917763   
0.198701   0.967927   -0.148094   0.921864   
0.196355   0.969341   -0.155103   0.927369   
0.193041   0.97228   -0.16178   0.934571   
0.188422   0.977082   -0.168021   0.943813   
0.182015   0.984133   -0.17363   0.955491   
0.173127   0.993866   -0.178241   0.970045   
0.160756   1.00673   -0.181178   0.987923   
0.143503   1.0231   -0.181194   1.00946   
0.119641   1.04302   -0.176032   1.03459   
0.0877605   1.06565   -0.161637   1.06215   
0.0507972   1.08802   -0.13233   1.08794   
0.0176348   1.10258   -0.0842496   1.10356   
0.00275079   1.09672   -0.0221363   1.09602   
-0.0109292   1.05112   -0.0165452   1.05702   
-0.0102468   1.00442   0.0110893   1.00977   
0.00742286   1.04749   0.0602082   1.04899   
0.0355399   1.06764   0.104953   1.06594   
0.0667307   1.06856   0.138768   1.0643   
0.0949416   1.05766   0.160503   1.05097   
0.117817   1.04197   0.172444   1.03249   
0.1353   1.02592   0.177573   1.01321   
0.148361   1.01167   0.178324   0.995385   
0.158008   0.999964   0.176306   0.979869   
0.165083   0.990891   0.172521   0.966866   
0.170227   0.984251   0.167575   0.956256   
0.173918   0.979746   0.161827   0.947796   
0.176513   0.977058   0.155493   0.941207   
0.178274   0.975887   0.1487   0.936214   
0.179403   0.975958   0.141521   0.932563   
0.180054   0.977024   0.134002   0.930026   
0.180346   0.978866   0.126171   0.9284   
0.180374   0.98129   0.118048   0.927508   
0.180213   0.984123   0.109647   0.927195   
0.179926   0.987212   0.100983   0.927324   
0.179563   0.99042   0.0920716   0.927774   
0.179163   0.993628   0.082928   0.928442   
0.178762   0.996728   0.0735714   0.929238   
0.178387   0.999628   0.0640224   0.930082   
0.178059   1.00225   0.0543043   0.93091   
0.177797   1.00452   0.0444423   0.931665   
0.177613   1.00639   0.0344634   0.932301   
0.177516   1.00782   0.0243962   0.932784   
0.177514   1.00876   0.0142706   0.933087   
0.177606   1.00921   0.00411716   0.933194   
0.177793   1.00914   -0.00603307   0.933097   
0.17807   1.00857   -0.016149   0.932796   
0.178428   1.0075   -0.0261999   0.932303   
0.178856   1.00596   -0.0361559   0.931637   
0.17934   1.00398   -0.0459879   0.930825   
0.17986   1.00161   -0.0556686   0.929906   
0.180393   0.998907   -0.065172   0.928926   
0.180912   0.995933   -0.0744741   0.927941   
0.181384   0.992771   -0.0835529   0.927019   
0.181769   0.989511   -0.0923883   0.926237   
0.182021   0.986257   -0.100962   0.925686   
0.182083   0.983125   -0.109256   0.925467   
0.181888   0.980246   -0.117254   0.925697   
0.181352   0.977765   -0.124938   0.92651   
0.180373   0.975844   -0.132283   0.928056   
0.178821   0.974665   -0.139261   0.930505   
0.176531   0.974429   -0.145823   0.934051   
0.173291   0.975361   -0.151897   0.938912   
0.168822   0.977705   -0.157365   0.945326   
0.162759   0.981727   -0.162035   0.953551   
0.154618   0.987698   -0.165593   0.963847   
0.143778   0.995866   -0.167524   0.976438   
0.129475   1.00639   -0.166988   0.991428   
0.110903   1.01917   -0.162645   1.00864   
0.0875705   1.03363   -0.152439   1.02726   
0.0603835   1.04816   -0.133639   1.04526   
0.0327803   1.05932   -0.10374   1.05868   
0.0113107   1.06137   -0.0626793   1.06133   
0.0022329   1.04695   -0.0154596   1.04618   
-0.0102151   1.00545   -0.0110014   1.01078   
-0.00915297   0.969568   0.00781858   0.974271   
0.00243431   1.00715   0.0461181   1.0091   
0.0220589   1.02939   0.0831087   1.02866   
0.0456306   1.03758   0.114011   1.03456   
0.0691726   1.03563   0.136862   1.03047   
0.0901211   1.02794   0.151995   1.02051   
0.107513   1.01804   0.160874   1.00805   
0.121363   1.00819   0.165118   0.995292   
0.132126   0.999546   0.166071   0.983475   
0.140348   0.99261   0.164708   0.973164   
0.146532   0.987488   0.161697   0.964544   
0.151104   0.984097   0.157481   0.95759   
0.154408   0.982259   0.152353   0.952177   
0.156719   0.981766   0.146506   0.948133   
0.158256   0.9824   0.140067   0.945272   
0.159192   0.983952   0.133122   0.943414   
0.159669   0.986227   0.125731   0.942386   
0.159801   0.989043   0.117938   0.94203   
0.159681   0.992237   0.109778   0.942202   
0.159386   0.995658   0.10128   0.942771   
0.15898   0.999172   0.0924737   0.943624   
0.158515   1.00266   0.0833839   0.944656   
0.158037   1.00601   0.0740385   0.945777   
0.157581   1.00914   0.0644658   0.94691   
0.157176   1.01195   0.0546955   0.947985   
0.156847   1.01439   0.0447586   0.948946   
0.15661   1.0164   0.0346875   0.949747   
0.156479   1.01792   0.0245159   0.95035   
0.156462   1.01893   0.0142783   0.950729   
0.156562   1.01941   0.0040097   0.950866   
0.156779   1.01934   -0.00625439   0.950754   
0.157106   1.01872   -0.0164786   0.950393   
0.157534   1.01758   -0.0266278   0.949794   
0.158048   1.01593   -0.0366676   0.948978   
0.158629   1.01381   -0.0465644   0.947974   
0.159254   1.01126   -0.056286   0.946821   
0.159892   1.00835   -0.0658013   0.945567   
0.160509   1.00514   -0.0750803   0.944271   
0.161062   1.00171   -0.0840947   0.943001   
0.161502   0.998163   -0.0928166   0.941834   
0.16177   0.99459   -0.101219   0.940862   
0.161797   0.991113   -0.109274   0.940184   
0.161499   0.987858   -0.11695   0.939914   
0.160779   0.984967   -0.124214   0.940179   
0.159514   0.982595   -0.131022   0.941116   
0.157558   0.980908   -0.137316   0.94288   
0.154731   0.980087   -0.143017   0.945634   
0.15081   0.980321   -0.148008   0.949552   
0.145518   0.981803   -0.152119   0.954811   
0.138518   0.984719   -0.155093   0.961571   
0.129411   0.989219   -0.156547   0.969952   
0.11775   0.995376   -0.155909   0.979977   
0.103116   1.0031   -0.152344   0.991477   
0.0852944   1.01198   -0.144686   1.00393   
0.0646653   1.0211   -0.131459   1.01619   
0.0427201   1.02865   -0.111179   1.0262   
0.0224684   1.03171   -0.0831267   1.03077   
0.00785545   1.02628   -0.0485168   1.02583   
0.00212009   1.00826   -0.0113018   1.00739   
-0.00911544   0.970807   -0.00773158   0.975488   
-0.00820452   0.941854   0.00574837   0.946035   
-0.00025043   0.975045   0.0366548   0.977235   
0.0137244   0.997536   0.0676138   0.997642   
0.0314811   1.00972   0.0952119   1.00793   
0.0504143   1.01365   0.117502   1.01012   
0.0684631   1.01206   0.134011   1.00675   
0.0844259   1.00753   0.14524   1.00023   
0.0978545   1.00196   0.152105   0.9924   
0.108769   0.9966   0.155558   0.984499   
0.117418   0.992139   0.156406   0.977252   
0.124123   0.988891   0.155273   0.971029   
0.129209   0.986938   0.152616   0.965969   
0.132969   0.986232   0.148763   0.962075   
0.135655   0.986655   0.143947   0.959274   
0.137481   0.988051   0.138334   0.957453   
0.138627   0.990256   0.132043   0.95648   
0.139241   0.993102   0.125162   0.956219   
0.139449   0.996427   0.117759   0.956537   
0.139356   1.00008   0.109888   0.957306   
0.139049   1.00391   0.101595   0.958409   