<VTKFile type="UnstructuredGrid"  version="0.1"   > 
<UnstructuredGrid> 
<Piece  NumberOfPoints="  2464" NumberOfCells=" 2349"> 
<Points> 
<DataArray  type="Float64"  NumberOfComponents="3"  format="ascii" > 
0.000000 0.000000 0.0 
0.198276 0.000000 0.0 
0.310345 0.000000 0.0 
0.413793 0.000000 0.0 
0.517241 0.000000 0.0 
0.620690 0.000000 0.0 
0.724138 0.000000 0.0 
0.827586 0.000000 0.0 
0.931034 0.000000 0.0 
1.034483 0.000000 0.0 
1.137931 0.000000 0.0 
1.241379 0.000000 0.0 
1.344828 0.000000 0.0 
1.448276 0.000000 0.0 
1.551724 0.000000 0.0 
1.655172 0.000000 0.0 
1.758621 0.000000 0.0 
1.862069 0.000000 0.0 
1.965517 0.000000 0.0 
2.068966 0.000000 0.0 
2.172414 0.000000 0.0 
2.275862 0.000000 0.0 
2.379310 0.000000 0.0 
2.482759 0.000000 0.0 
2.586207 0.000000 0.0 
2.689655 0.000000 0.0 
2.801724 0.000000 0.0 
3.000000 0.000000 0.0 
0.000000 0.193820 0.0 
0.198276 0.193820 0.0 
0.310345 0.193820 0.0 
0.413793 0.193820 0.0 
0.517241 0.193820 0.0 
0.620690 0.193820 0.0 
0.724138 0.193820 0.0 
0.827586 0.193820 0.0 
0.931034 0.193820 0.0 
1.034483 0.193820 0.0 
1.137931 0.193820 0.0 
1.241379 0.193820 0.0 
1.344828 0.193820 0.0 
1.448276 0.193820 0.0 
1.551724 0.193820 0.0 
1.655172 0.193820 0.0 
1.758621 0.193820 0.0 
1.862069 0.193820 0.0 
1.965517 0.193820 0.0 
2.068966 0.193820 0.0 
2.172414 0.193820 0.0 
2.275862 0.193820 0.0 
2.379310 0.193820 0.0 
2.482759 0.193820 0.0 
2.586207 0.193820 0.0 
2.689655 0.193820 0.0 
2.801724 0.193820 0.0 
3.000000 0.193820 0.0 
0.000000 0.303371 0.0 
0.198276 0.303371 0.0 
0.310345 0.303371 0.0 
0.413793 0.303371 0.0 
0.517241 0.303371 0.0 
0.620690 0.303371 0.0 
0.724138 0.303371 0.0 
0.827586 0.303371 0.0 
0.931034 0.303371 0.0 
1.034483 0.303371 0.0 
1.137931 0.303371 0.0 
1.241379 0.303371 0.0 
1.344828 0.303371 0.0 
1.448276 0.303371 0.0 
1.551724 0.303371 0.0 
1.655172 0.303371 0.0 
1.758621 0.303371 0.0 
1.862069 0.303371 0.0 
1.965517 0.303371 0.0 
2.068966 0.303371 0.0 
2.172414 0.303371 0.0 
2.275862 0.303371 0.0 
2.379310 0.303371 0.0 
2.482759 0.303371 0.0 
2.586207 0.303371 0.0 
2.689655 0.303371 0.0 
2.801724 0.303371 0.0 
3.000000 0.303371 0.0 
0.000000 0.404494 0.0 
0.198276 0.404494 0.0 
0.310345 0.404494 0.0 
0.413793 0.404494 0.0 
0.517241 0.404494 0.0 
0.620690 0.404494 0.0 
0.724138 0.404494 0.0 
0.827586 0.404494 0.0 
0.931034 0.404494 0.0 
1.034483 0.404494 0.0 
1.137931 0.404494 0.0 
1.241379 0.404494 0.0 
1.344828 0.404494 0.0 
1.448276 0.404494 0.0 
1.551724 0.404494 0.0 
1.655172 0.404494 0.0 
1.758621 0.404494 0.0 
1.862069 0.404494 0.0 
1.965517 0.404494 0.0 
2.068966 0.404494 0.0 
2.172414 0.404494 0.0 
2.275862 0.404494 0.0 
2.379310 0.404494 0.0 
2.482759 0.404494 0.0 
2.586207 0.404494 0.0 
2.689655 0.404494 0.0 
2.801724 0.404494 0.0 
3.000000 0.404494 0.0 
0.000000 0.505618 0.0 
0.198276 0.505618 0.0 
0.310345 0.505618 0.0 
0.413793 0.505618 0.0 
0.517241 0.505618 0.0 
0.620690 0.505618 0.0 
0.724138 0.505618 0.0 
0.827586 0.505618 0.0 
0.931034 0.505618 0.0 
1.034483 0.505618 0.0 
1.137931 0.505618 0.0 
1.241379 0.505618 0.0 
1.344828 0.505618 0.0 
1.448276 0.505618 0.0 
1.551724 0.505618 0.0 
1.655172 0.505618 0.0 
1.758621 0.505618 0.0 
1.862069 0.505618 0.0 
1.965517 0.505618 0.0 
2.068966 0.505618 0.0 
2.172414 0.505618 0.0 
2.275862 0.505618 0.0 
2.379310 0.505618 0.0 
2.482759 0.505618 0.0 
2.586207 0.505618 0.0 
2.689655 0.505618 0.0 
2.801724 0.505618 0.0 
3.000000 0.505618 0.0 
0.000000 0.606742 0.0 
0.198276 0.606742 0.0 
0.310345 0.606742 0.0 
0.413793 0.606742 0.0 
0.517241 0.606742 0.0 
0.620690 0.606742 0.0 
0.724138 0.606742 0.0 
0.827586 0.606742 0.0 
0.931034 0.606742 0.0 
1.034483 0.606742 0.0 
1.137931 0.606742 0.0 
1.241379 0.606742 0.0 
1.344828 0.606742 0.0 
1.448276 0.606742 0.0 
1.551724 0.606742 0.0 
1.655172 0.606742 0.0 
1.758621 0.606742 0.0 
1.862069 0.606742 0.0 
1.965517 0.606742 0.0 
2.068966 0.606742 0.0 
2.172414 0.606742 0.0 
2.275862 0.606742 0.0 
2.379310 0.606742 0.0 
2.482759 0.606742 0.0 
2.586207 0.606742 0.0 
2.689655 0.606742 0.0 
2.801724 0.606742 0.0 
3.000000 0.606742 0.0 
0.000000 0.707865 0.0 
0.198276 0.707865 0.0 
0.310345 0.707865 0.0 
0.413793 0.707865 0.0 
0.517241 0.707865 0.0 
0.620690 0.707865 0.0 
0.724138 0.707865 0.0 
0.827586 0.707865 0.0 
0.931034 0.707865 0.0 
1.034483 0.707865 0.0 
1.137931 0.707865 0.0 
1.241379 0.707865 0.0 
1.344828 0.707865 0.0 
1.448276 0.707865 0.0 
1.551724 0.707865 0.0 
1.655172 0.707865 0.0 
1.758621 0.707865 0.0 
1.862069 0.707865 0.0 
1.965517 0.707865 0.0 
2.068966 0.707865 0.0 
2.172414 0.707865 0.0 
2.275862 0.707865 0.0 
2.379310 0.707865 0.0 
2.482759 0.707865 0.0 
2.586207 0.707865 0.0 
2.689655 0.707865 0.0 
2.801724 0.707865 0.0 
3.000000 0.707865 0.0 
0.000000 0.808989 0.0 
0.198276 0.808989 0.0 
0.310345 0.808989 0.0 
0.413793 0.808989 0.0 
0.517241 0.808989 0.0 
0.620690 0.808989 0.0 
0.724138 0.808989 0.0 
0.827586 0.808989 0.0 
0.931034 0.808989 0.0 
1.034483 0.808989 0.0 
1.137931 0.808989 0.0 
1.241379 0.808989 0.0 
1.344828 0.808989 0.0 
1.448276 0.808989 0.0 
1.551724 0.808989 0.0 
1.655172 0.808989 0.0 
1.758621 0.808989 0.0 
1.862069 0.808989 0.0 
1.965517 0.808989 0.0 
2.068966 0.808989 0.0 
2.172414 0.808989 0.0 
2.275862 0.808989 0.0 
2.379310 0.808989 0.0 
2.482759 0.808989 0.0 
2.586207 0.808989 0.0 
2.689655 0.808989 0.0 
2.801724 0.808989 0.0 
3.000000 0.808989 0.0 
0.000000 0.910112 0.0 
0.198276 0.910112 0.0 
0.310345 0.910112 0.0 
0.413793 0.910112 0.0 
0.517241 0.910112 0.0 
0.620690 0.910112 0.0 
0.724138 0.910112 0.0 
0.827586 0.910112 0.0 
0.931034 0.910112 0.0 
1.034483 0.910112 0.0 
1.137931 0.910112 0.0 
1.241379 0.910112 0.0 
1.344828 0.910112 0.0 
1.448276 0.910112 0.0 
1.551724 0.910112 0.0 
1.655172 0.910112 0.0 
1.758621 0.910112 0.0 
1.862069 0.910112 0.0 
1.965517 0.910112 0.0 
2.068966 0.910112 0.0 
2.172414 0.910112 0.0 
2.275862 0.910112 0.0 
2.379310 0.910112 0.0 
2.482759 0.910112 0.0 
2.586207 0.910112 0.0 
2.689655 0.910112 0.0 
2.801724 0.910112 0.0 
3.000000 0.910112 0.0 
0.000000 1.011236 0.0 
0.198276 1.011236 0.0 
0.310345 1.011236 0.0 
0.413793 1.011236 0.0 
0.517241 1.011236 0.0 
0.620690 1.011236 0.0 
0.724138 1.011236 0.0 
0.827586 1.011236 0.0 
0.931034 1.011236 0.0 
1.034483 1.011236 0.0 
1.137931 1.011236 0.0 
1.241379 1.011236 0.0 
1.344828 1.011236 0.0 
1.448276 1.011236 0.0 
1.551724 1.011236 0.0 
1.655172 1.011236 0.0 
1.758621 1.011236 0.0 
1.862069 1.011236 0.0 
1.965517 1.011236 0.0 
2.068966 1.011236 0.0 
2.172414 1.011236 0.0 
2.275862 1.011236 0.0 
2.379310 1.011236 0.0 
2.482759 1.011236 0.0 
2.586207 1.011236 0.0 
2.689655 1.011236 0.0 
2.801724 1.011236 0.0 
3.000000 1.011236 0.0 
0.000000 1.112360 0.0 
0.198276 1.112360 0.0 
0.310345 1.112360 0.0 
0.413793 1.112360 0.0 
0.517241 1.112360 0.0 
0.620690 1.112360 0.0 
0.724138 1.112360 0.0 
0.827586 1.112360 0.0 
0.931034 1.112360 0.0 
1.034483 1.112360 0.0 
1.137931 1.112360 0.0 
1.241379 1.112360 0.0 
1.344828 1.112360 0.0 
1.448276 1.112360 0.0 
1.551724 1.112360 0.0 
1.655172 1.112360 0.0 
1.758621 1.112360 0.0 
1.862069 1.112360 0.0 
1.965517 1.112360 0.0 
2.068966 1.112360 0.0 
2.172414 1.112360 0.0 
2.275862 1.112360 0.0 
2.379310 1.112360 0.0 
2.482759 1.112360 0.0 
2.586207 1.112360 0.0 
2.689655 1.112360 0.0 
2.801724 1.112360 0.0 
3.000000 1.112360 0.0 
0.000000 1.213483 0.0 
0.198276 1.213483 0.0 
0.310345 1.213483 0.0 
0.413793 1.213483 0.0 
0.517241 1.213483 0.0 
0.620690 1.213483 0.0 
0.724138 1.213483 0.0 
0.827586 1.213483 0.0 
0.931034 1.213483 0.0 
1.034483 1.213483 0.0 
1.137931 1.213483 0.0 
1.241379 1.213483 0.0 
1.344828 1.213483 0.0 
1.448276 1.213483 0.0 
1.551724 1.213483 0.0 
1.655172 1.213483 0.0 
1.758621 1.213483 0.0 
1.862069 1.213483 0.0 
1.965517 1.213483 0.0 
2.068966 1.213483 0.0 
2.172414 1.213483 0.0 
2.275862 1.213483 0.0 
2.379310 1.213483 0.0 
2.482759 1.213483 0.0 
2.586207 1.213483 0.0 
2.689655 1.213483 0.0 
2.801724 1.213483 0.0 
3.000000 1.213483 0.0 
0.000000 1.314607 0.0 
0.198276 1.314607 0.0 
0.310345 1.314607 0.0 
0.413793 1.314607 0.0 
0.517241 1.314607 0.0 
0.620690 1.314607 0.0 
0.724138 1.314607 0.0 
0.827586 1.314607 0.0 
0.931034 1.314607 0.0 
1.034483 1.314607 0.0 
1.137931 1.314607 0.0 
1.241379 1.314607 0.0 
1.344828 1.314607 0.0 
1.448276 1.314607 0.0 
1.551724 1.314607 0.0 
1.655172 1.314607 0.0 
1.758621 1.314607 0.0 
1.862069 1.314607 0.0 
1.965517 1.314607 0.0 
2.068966 1.314607 0.0 
2.172414 1.314607 0.0 
2.275862 1.314607 0.0 
2.379310 1.314607 0.0 
2.482759 1.314607 0.0 
2.586207 1.314607 0.0 
2.689655 1.314607 0.0 
2.801724 1.314607 0.0 
3.000000 1.314607 0.0 
0.000000 1.415730 0.0 
0.198276 1.415730 0.0 
0.310345 1.415730 0.0 
0.413793 1.415730 0.0 
0.517241 1.415730 0.0 
0.620690 1.415730 0.0 
0.724138 1.415730 0.0 
0.827586 1.415730 0.0 
0.931034 1.415730 0.0 
1.034483 1.415730 0.0 
1.137931 1.415730 0.0 
1.241379 1.415730 0.0 
1.344828 1.415730 0.0 
1.448276 1.415730 0.0 
1.551724 1.415730 0.0 
1.655172 1.415730 0.0 
1.758621 1.415730 0.0 
1.862069 1.415730 0.0 
1.965517 1.415730 0.0 
2.068966 1.415730 0.0 
2.172414 1.415730 0.0 
2.275862 1.415730 0.0 
2.379310 1.415730 0.0 
2.482759 1.415730 0.0 
2.586207 1.415730 0.0 
2.689655 1.415730 0.0 
2.801724 1.415730 0.0 
3.000000 1.415730 0.0 
0.000000 1.516854 0.0 
0.198276 1.516854 0.0 
0.310345 1.516854 0.0 
0.413793 1.516854 0.0 
0.517241 1.516854 0.0 
0.620690 1.516854 0.0 
0.724138 1.516854 0.0 
0.827586 1.516854 0.0 
0.931034 1.516854 0.0 
1.034483 1.516854 0.0 
1.137931 1.516854 0.0 
1.241379 1.516854 0.0 
1.344828 1.516854 0.0 
1.448276 1.516854 0.0 
1.551724 1.516854 0.0 
1.655172 1.516854 0.0 
1.758621 1.516854 0.0 
1.862069 1.516854 0.0 
1.965517 1.516854 0.0 
2.068966 1.516854 0.0 
2.172414 1.516854 0.0 
2.275862 1.516854 0.0 
2.379310 1.516854 0.0 
2.482759 1.516854 0.0 
2.586207 1.516854 0.0 
2.689655 1.516854 0.0 
2.801724 1.516854 0.0 
3.000000 1.516854 0.0 
0.000000 1.617978 0.0 
0.198276 1.617978 0.0 
0.310345 1.617978 0.0 
0.413793 1.617978 0.0 
0.517241 1.617978 0.0 
[...]
<PointData  Vectors="sigma"> 
<DataArray  type="Float64"  Name="sigma" NumberOfComponents="4" format="ascii"> 
0.579246   1.93082   0.467857   1.89785   
0.328247   1.09416   0.221833   1.04566   
0.303888   1.01296   0.177208   0.95122   
0.298621   0.995403   0.153103   0.923621   
0.290628   0.968761   0.130216   0.890103   
0.287558   0.958528   0.112413   0.873924   
0.284287   0.947623   0.095855   0.858474   
0.282367   0.941225   0.0810767   0.848283   
0.280717   0.935722   0.0671943   0.839792   
0.279575   0.931917   0.054108   0.833591   
0.278691   0.928971   0.0415435   0.828817   
0.27808   0.926933   0.0293638   0.825445   
0.277674   0.92558   0.0174384   0.823228   
0.277465   0.924884   0.00566256   0.822114   
0.27744   0.9248   -0.00605521   0.822047   
0.2776   0.925334   -0.0178066   0.823033   
0.277964   0.926546   -0.0296845   0.825135   
0.278542   0.928473   -0.0417966   0.828414   
0.279406   0.931353   -0.0542777   0.833125   
0.280542   0.93514   -0.0672703   0.839298   
0.282204   0.94068   -0.0810558   0.8478   
0.284151   0.947171   -0.0957419   0.858041   
0.287465   0.958217   -0.11222   0.87358   
0.29059   0.968633   -0.129965   0.889882   
0.298643   0.995477   -0.152821   0.923544   
0.303973   1.01324   -0.176931   0.951304   
0.328385   1.09462   -0.221602   1.04589   
0.579348   1.93116   -0.467794   1.89808   
-0.0194327   1.02688   -0.000829806   1.03674   
0.104795   1.10972   0.165935   1.09944   
0.170598   1.06632   0.154143   1.02738   
0.181971   1.02149   0.13966   0.974267   
0.201714   1.00328   0.123916   0.9439   
0.207151   0.984562   0.107833   0.918262   
0.214424   0.973759   0.0932764   0.900826   
0.21752   0.964533   0.0791773   0.886927   
0.220584   0.958186   0.0660103   0.876635   
0.2223   0.953215   0.0532792   0.868707   
0.22368   0.949657   0.0410202   0.86285   
0.224522   0.947099   0.0290325   0.858656   
0.225076   0.945451   0.01726   0.855939   
0.225336   0.94459   0.0056021   0.854559   
0.225352   0.944485   -0.00600532   0.85446   
0.225125   0.945145   -0.01764   0.85565   
0.224602   0.946615   -0.0293672   0.858196   
0.22379   0.949032   -0.0412897   0.86225   
0.222435   0.952499   -0.053467   0.868009   
0.220739   0.95744   -0.0661048   0.875889   
0.217687   0.963823   -0.079173   0.886192   
0.214592   0.973153   -0.0931751   0.900162   
0.207309   0.984125   -0.107644   0.917728   
0.201849   1.00306   -0.123659   0.94355   
0.182072   1.02154   -0.139359   0.974144   
0.17066   1.06663   -0.153838   1.02751   
0.104812   1.11028   -0.165645   1.09985   
-0.0194266   1.02769   0.000895973   1.03754   
-0.015239   1.03358   0.0106949   1.04145   
0.058586   1.08403   0.101849   1.07059   
0.0978833   1.05475   0.113101   1.02821   
0.129666   1.03371   0.116103   0.99588   
0.148846   1.0118   0.107019   0.964182   
0.164109   0.997275   0.0974571   0.941446   
0.173473   0.984976   0.0855458   0.922691   
0.180876   0.976211   0.0740371   0.908611   
0.185732   0.969286   0.0622036   0.897548   
0.189419   0.964195   0.050667   0.889166   
0.191899   0.960385   0.0391743   0.882877   
0.193635   0.957702   0.0278389   0.87839   
0.194694   0.955948   0.0165674   0.875471   
0.195222   0.955037   0.00536223   0.873985   
0.195251   0.954922   -0.00582285   0.873871   
0.194779   0.955609   -0.0170027   0.875136   
0.193774   0.957165   -0.0282247   0.877855   
0.192086   0.959689   -0.0394879   0.882176   
0.189648   0.963394   -0.0508888   0.888345   
0.185991   0.968444   -0.0623187   0.896663   
0.181152   0.975402   -0.0740367   0.90773   
0.173747   0.984275   -0.0854297   0.921882   
0.164362   0.996755   -0.0972338   0.940782   
0.149059   1.01152   -0.106711   0.963732   
0.129823   1.03372   -0.115738   0.995702   
0.0979806   1.05507   -0.112731   1.02836   
0.0586261   1.08466   -0.101516   1.0711   
-0.0152337   1.03463   -0.010657   1.0425   
-0.00126054   0.974939   0.00197868   0.975576   
0.0248863   1.05027   0.0638634   1.04393   
0.0662499   1.05011   0.0849629   1.02918   
0.0883871   1.03264   0.0908363   1.00381   
0.112419   1.01972   0.0903704   0.980987   
0.127358   1.00568   0.0844501   0.959647   
0.140241   0.995471   0.0766759   0.942689   
0.148765   0.986683   0.0673318   0.928704   
0.155537   0.98016   0.0575059   0.917809   
0.160179   0.975012   0.0472326   0.909297   
0.163625   0.971247   0.0368184   0.902907   
0.165912   0.968527   0.0262694   0.898305   
0.167375   0.966762   0.0156763   0.895304   
0.16808   0.965832   0.00505021   0.893768   
0.168113   0.965703   -0.00556973   0.893639   
0.167472   0.966385   -0.0161692   0.894924   
0.16607   0.967926   -0.0267095   0.897696   
0.163841   0.970464   -0.0371805   0.902103   
0.160446   0.974105   -0.047494   0.90835   
0.155843   0.979199   -0.0576479   0.91678   
0.149094   0.985748   -0.0673417   0.927666   
0.140572   0.994648   -0.0765504   0.941725   
0.127669   1.00505   -0.0841968   0.958843   
0.112688   1.01937   -0.0900128   0.980431   
0.0885933   1.03262   -0.0904095   1.00358   
0.0663877   1.05045   -0.0845297   1.02934   
0.0249546   1.051   -0.0634777   1.04455   
-0.00124764   0.976238   -0.00192957   0.976869   
-0.00668547   0.965017   0.0018112   0.968383   
0.0186562   1.02969   0.0411843   1.02298   
0.0407391   1.03375   0.0584966   1.01904   
0.0627044   1.02974   0.0691023   1.007   
0.0814627   1.02004   0.0718616   0.989705   
0.0977297   1.01104   0.0706916   0.97362   
0.109957   1.00213   0.065922   0.958751   
0.119766   0.994981   0.0594719   0.946454   
0.126921   0.988983   0.0515947   0.936301   
0.132368   0.98439   0.0429958   0.928326   
0.136215   0.980862   0.0338062   0.922207   
0.138912   0.978344   0.024289   0.91778   
0.140584   0.976673   0.0145318   0.914868   
0.14141   0.975788   0.00466208   0.913367   
0.141439   0.975647   -0.0052437   0.913225   
0.140671   0.976256   -0.0150863   0.914448   
0.139058   0.977679   -0.0247889   0.917105   
0.13642   0.97999   -0.0342241   0.921311   
0.132628   0.983371   -0.0433052   0.927261   
0.127228   0.987892   -0.0517723   0.935132   
0.120106   0.993905   -0.0594998   0.945261   
0.11031   1.00117   -0.0657924   0.957627   
0.0980719   1.01029   -0.0704095   0.97267   
0.0817683   1.01959   -0.0714521   0.989037   
0.062948   1.02967   -0.0686058   1.00672   
0.0409094   1.03411   -0.0579885   1.01923   
0.0187465   1.03054   -0.0407312   1.02373   
-0.00667022   0.966602   -0.00175526   0.969959   
-0.00188442   0.953278   0.000208487   0.954221   
0.00947281   1.00977   0.0254752   1.00604   
0.0279766   1.02242   0.041054   1.01122   
0.0426062   1.02189   0.0505802   1.00509   
0.0592202   1.01873   0.0562251   0.995227   
0.0726158   1.0125   0.0573136   0.983238   
0.0844889   1.00667   0.0555315   0.971964   
0.0935713   1.00095   0.0512783   0.961713   
0.100867   0.996294   0.0454761   0.953146   
0.10624   0.99243   0.0384356   0.94615   
0.11024   0.989502   0.0305883   0.94074   
0.112977   0.987339   0.0221337   0.936763   
0.11472   0.985906   0.0133014   0.93413   
0.115558   0.985122   0.00424393   0.932757   
0.115575   0.984968   -0.00487216   0.932605   
0.114773   0.98545   -0.0139044   0.933682   
0.113071   0.986606   -0.022685   0.936036   
0.110382   0.988536   -0.0310595   0.939768   
0.106434   0.991289   -0.0387969   0.944982   
0.101114   0.995058   -0.0456987   0.951848   
0.0938655   0.999716   -0.0513375   0.96037   
0.0848148   1.00554   -0.0554127   0.970682   
0.0729496   1.01159   -0.0570163   0.982137   
0.059534   1.01816   -0.0557732   0.994441   
0.0428683   1.02176   -0.050017   1.00475   
0.0281687   1.0228   -0.0404674   1.01144   
0.00958057   1.01075   -0.0249418   1.00692   
-0.00186289   0.955204   -0.000138633   0.956137   
-0.00297254   0.949667   -6.00507e-06   0.951156   
0.00681563   0.997973   0.0159445   0.994966   
0.017855   1.01019   0.027648   1.00253   
0.0294468   1.01489   0.0369148   1.00253   
0.0414535   1.01449   0.0429296   0.997186   
0.0528288   1.01219   0.0459429   0.990042   
0.0625282   1.00858   0.045943   0.982049   
0.0707145   1.00508   0.0437137   0.974598   
0.0771202   1.00178   0.0395704   0.967958   
0.082108   0.999078   0.0340484   0.962468   
0.0857426   0.996913   0.0274259   0.958106   
0.088299   0.995327   0.0200329   0.954877   
0.0898902   0.994239   0.0120947   0.952711   
0.090657   0.993627   0.00385137   0.951566   
0.09065   0.993461   -0.00449225   0.951413   
0.0898739   0.99375   -0.0127165   0.952255   
0.0882868   0.994536   -0.0206138   0.954131   
0.0857529   0.995859   -0.027939   0.957096   
0.0821604   0.997818   -0.0344615   0.961235   
0.0772301   1.00039   -0.0398486   0.966566   
0.0708882   1.00367   -0.043823   0.973131   
0.0627604   1.00727   -0.0458583   0.980621   
0.0531002   1.0111   -0.0456541   0.988792   
0.0417349   1.01377   -0.042455   0.996275   
0.0297005   1.01467   -0.0362968   1.00212   
0.018052   1.01058   -0.0269856   1.00277   
0.006935   0.999096   -0.0153245   0.996001   
-0.00294298   0.952011   9.15812e-05   0.953486   
-0.00145192   0.948871   -0.000514998   0.949599   
0.00367274   0.987974   0.00940343   0.986277   
0.0116705   1.00133   0.018969   0.996083   
0.0191758   1.0072   0.0267135   0.998825   
0.0281552   1.01003   0.0330274   0.997893   
0.0364329   1.01007   0.0367264   0.994392   
0.0441486   1.00912   0.0381295   0.989994   
0.0505441   1.0075   0.0372474   0.98532   
0.0558182   1.00593   0.0345234   0.981037   
0.0598456   1.00447   0.0302137   0.977329   
0.0628536   1.00332   0.0246836   0.974355   
0.0649171   1.00243   0.0182024   0.972114   
0.0662027   1.00182   0.0110663   0.9706   
0.066789   1.00143   0.00353343   0.969779   
0.0667419   1.00126   -0.00412556   0.969635   
0.0660703   1.00131   -0.0116524   0.97017   
0.0647247   1.0016   -0.0187708   0.971403   
0.0626383   1.0022   -0.0252131   0.973373   
0.0596494   1.00311   -0.0306719   0.976101   
0.05568   1.0044   -0.0348685   0.979612   
0.0504917   1.00591   -0.0374331   0.983778   
0.0441931   1.0076   -0.0381152   0.988453   
0.0365646   1.00877   -0.0364856   0.993007   
0.028346   1.00913   -0.0325664   0.996853   
0.019382   1.00686   -0.0260677   0.998334   
0.0118498   1.0017   -0.0182461   0.996332   
0.00379605   0.989248   -0.00869843   0.987471   
-0.00141048   0.951719   0.000619054   0.952425   
-0.0014406   0.949638   -0.00057327   0.95036   
0.00210337   0.981445   0.00559523   0.980443   
0.00671408   0.993326   0.0130876   0.990246   
0.011653   1.00063   0.0199738   0.995458   
0.0173529   1.00491   0.0259057   0.997354   
0.023082   1.00733   0.0300937   0.997356   
0.0283138   1.00838   0.0322272   0.996088   
0.0328695   1.00882   0.0323749   0.994374   
0.0365313   1.00888   0.0306406   0.992543   
0.0393746   1.00888   0.0273027   0.990905   
0.0414161   1.00883   0.0226062   0.989544   
0.0427948   1.00879   0.0168564   0.988518   
0.0435943   1.00873   0.0103362   0.987813   
0.0439145   1.00862   0.00335206   0.987414   
0.0438049   1.00845   -0.00379722   0.987301   
0.0432806   1.00822   -0.0107982   0.987469   
0.0423202   1.00795   -0.0173427   0.987931   
0.0408448   1.00768   -0.0231077   0.988699   
0.0387818   1.00745   -0.0277897   0.989798   
0.0359913   1.00724   -0.0310642   0.991197   
0.0324429   1.00706   -0.0326727   0.992849   
0.028038   1.00664   -0.0323359   0.994496   
0.0229643   1.0058   -0.0299615   0.995866   
0.01737   1.00378   -0.0255171   0.996186   
0.0117561   1.00013   -0.0193485   0.994866   
0.00684281   0.993656   -0.0123371   0.990483   
0.00221973   0.982864   -0.00481886   0.981791   
-0.00138281   0.953082   0.000697489   0.953774   
-0.000825935   0.951699   -0.000678269   0.952113   
0.000624749   0.976058   0.00348343   0.975765   
0.00305106   0.98694   0.00985705   0.985566   
0.00549992   0.994345   0.01588   0.991988   
0.00862339   0.999995   0.0215938   0.996413   
0.011702   1.004   0.0258734   0.999202   
0.0146343   1.00701   0.0285103   1.00099   
0.0170746   1.00925   0.0292672   1.00211   
0.0190143   1.01106   0.0282408   1.00288   
0.020385   1.01251   0.0255494   1.00345   
0.0212809   1.01371   0.021438   1.00392   
0.0217648   1.0146   0.0161628   1.00429   
0.0219485   1.01519   0.0100317   1.00454   
0.0219076   1.01542   0.00336069   1.00466   
0.0217048   1.01527   -0.00350952   1.00461   
0.0213642   1.01473   -0.0102346   1.00437   
0.0208673   1.01383   -0.016459   1.00396   
0.0201735   1.0126   -0.0218398   1.00338   
0.0191907   1.0111   -0.0260351   1.00265   
0.0178586   1.00936   -0.0287544   1.00179   
0.016067   1.00736   -0.0297249   1.00075   
0.0138522   1.00507   -0.0288171   0.999461   
0.0111799   1.0022   -0.0259396   0.997667   
0.00834868   0.998591   -0.0213683   0.995131   
0.00542016   0.993615   -0.015354   0.991273   
0.00308209   0.987165   -0.00913662   0.985755   
0.000717873   0.977596   -0.00266613   0.977248   
-0.000745873   0.955833   0.00082357   0.956207   
-0.0005978   0.953694   -0.000588874   0.953994   
-0.000447384   0.971784   0.00289354   0.972021   
-3.93728e-05   0.98111   0.00857439   0.981242   
0.000446527   0.988646   0.0142191   0.988729   
0.00113383   0.995027   0.0196934   0.995045   
0.00186783   1.00051   0.0240685   1.00044   
0.00244572   1.00515   0.0269446   1.00501   
0.00279632   1.00919   0.0280963   1.00897   
0.00283651   1.01268   0.0274692   1.01239   
0.00261341   1.0157   0.0251616   1.01533   
0.00217213   1.01819   0.0213457   1.01778   
0.00162127   1.02013   0.0162789   1.01971   
0.00105378   1.02144   0.0102577   1.02107   
0.000567795   1.02206   0.0036243   1.0218   
0.000230041   1.02195   -0.0032576   1.02185   
7.67099e-05   1.0211   -0.0100025   1.0212   
0.000108701   1.01951   -0.0162241   1.01985   
0.000281819   1.01725   -0.0215386   1.0178   
0.000536197   1.01441   -0.025596   1.01511   
0.000770829   1.01104   -0.0280828   1.01182   
0.000921791   1.00725   -0.0287779   1.00802   
0.00089874   1.00303   -0.0275548   1.00372   
0.000725128   0.998435   -0.0244627   0.998972   
0.000401132   0.993297   -0.019766   0.993687   
7.08402e-05   0.987611   -0.0139137   0.98787   
-0.000173604   0.981146   -0.00797755   0.98133   
-0.000401465   0.973385   -0.00209022   0.973592   
-0.00048797   0.958608   0.000754745   0.958853   
-0.000252664   0.95545   -0.000467005   0.955577   
-0.0014215   0.967674   0.00348868   0.968404   
-0.00267439   0.975693   0.00906882   0.977159   
-0.00399266   0.983058   0.0146133   0.985386   
-0.00544158   0.990149   0.0200768   0.99349   
-0.00697177   0.996826   0.0245139   1.00123   
-0.00862471   1.00307   0.0275615   1.00854   
-0.0104213   1.00882   0.0289014   1.01531   
-0.0123236   1.01405   0.0284626   1.02146   
-0.0142783   1.01866   0.0262705   1.02688   
-0.016176   1.02257   0.0224836   1.03149   
-0.0179052   1.02564   0.017332   1.03515   
-0.0193371   1.02777   0.0111225   1.03776   
-0.0203625   1.02886   0.00420883   1.03921   
-0.0208919   1.02882   -0.00301242   1.03944   
-0.0208721   1.02764   -0.0101231   1.03839   
-0.0202931   1.02534   -0.016693   1.03604   
-0.0191837   1.02199   -0.0223066   1.03244   
-0.017621   1.0177   -0.0265758   1.02765   
-0.0157007   1.01263   -0.0291834   1.02183   
-0.013554   1.00696   -0.0298915   1.01512   
-0.0112919   1.00086   -0.0286207   1.00777   
-0.00903413   0.994493   -0.0254199   1.00001   
-0.00686331   0.988038   -0.0206425   0.992132   
-0.00482275   0.981616   -0.0147085   0.984366   
-0.00306938   0.975415   -0.00873877   0.977071   
-0.00145776   0.969239   -0.00278896   0.969981   
-0.000103507   0.961214   0.000650711   0.961266   
-1.63565e-05   0.956174   -0.000234921   0.956183   
-0.00228854   0.963344   0.00517142   0.964532   
-0.00507157   0.97013   0.0110842   0.972866   
-0.00800546   0.977446   0.0169136   0.98191   
-0.0114684   0.985147   0.0225404   0.991699   
-0.0151169   0.993048   0.0271443   1.0018   
-0.0189727   1.00084   0.0303099   1.01182   
-0.0228959   1.00835   0.0317353   1.02147   
-0.0268138   1.01536   0.0312937   1.03045   
-0.0305816   1.02168   0.0289979   1.03853   
-0.0340626   1.02711   0.0249731   1.04545   
-0.0370904   1.03144   0.0194484   1.05102   
-0.0395104   1.0345   0.0127307   1.05504   
-0.0411763   1.03613   0.00519662   1.05736   
-0.041973   1.03622   -0.00272864   1.05785   
-0.0418246   1.03473   -0.0105835   1.05643   
-0.0407028   1.03168   -0.0178943   1.05308   
-0.0386371   1.02716   -0.0241943   1.04785   
-0.0357046   1.02134   -0.0290572   1.04087   
-0.0320441   1.01444   -0.0321234   1.03234   
-0.0278166   1.00678   -0.0331447   1.02258   
-0.0232432   0.998665   -0.0320168   1.01201   
-0.0185075   0.99049   -0.0288179   1.00112   
-0.0138968   0.982597   -0.0238758   0.990482   
-0.00950934   0.975463   -0.0176697   0.980729   
-0.00586075   0.969363   -0.0112329   0.972502   
-0.00245704   0.96471   -0.00471382   0.965976   
0.000184172   0.962821   0.000430339   0.962729   
0.000226899   0.955511   5.90416e-05   0.955398   
-0.00312055   0.958249   0.00783521   0.959909   
-0.00731916   0.964099   0.0145282   0.968107   
-0.0117829   0.971471   0.0209645   0.97809   
-0.0171425   0.979919   0.0269958   0.989707   
-0.0228501   0.989088   0.0318714   1.00223   
-0.0288567   0.998526   0.035183   1.01509   
-0.0349284   1.00788   0.0366182   1.02775   
-0.0409055   1.0168   0.0360422   1.03974   
-0.0465843   1.02497   0.0334429   1.05064   
-0.05176   1.03208   0.0289387   1.06009   
-0.0562204   1.03782   0.0227517   1.06777   
-0.0597584   1.04195   0.0152012   1.0734   
-0.0621869   1.04424   0.00668498   1.07674   
-0.0633515   1.04453   -0.00233344   1.07761   
-0.0631451   1.04276   -0.0113461   1.0759   
-0.0615208   1.03893   -0.0198206   1.07157   
-0.0584988   1.03317   -0.0272309   1.06467   
-0.0541737   1.02568   -0.0330861   1.05537   
-0.0487127   1.0168   -0.0369735   1.04397   
-0.0423471   1.00694   -0.0385912   1.03094   
-0.0353805   0.996613   -0.0378058   1.01688   
-0.0281211   0.986392   -0.034664   1.00255   
-0.0210092   0.976879   -0.0294866   0.988871   
-0.0142608   0.968778   -0.0227503   0.976781   
-0.00868654   0.962596   -0.0154614   0.96734   
-0.00349183   0.959166   -0.00782612   0.961012   
0.000493884   0.96301   0.00013692   0.962763   
0.000427107   0.952904   0.000439858   0.952691   
-0.00393746   0.951974   0.0114433   0.954155   
-0.00949451   0.957201   0.0193142   0.962565   
-0.0154268   0.964888   0.0266974   0.973791   
-0.0226285   0.97426   0.0333609   0.987461   
-0.0303447   0.984887   0.0386613   1.00264   
-0.0384955   0.996126   0.0421682   1.01854   
-0.0467329   1.00751   0.043592   1.03442   
-0.0548373   1.01853   0.042779   1.04964   
-0.062522   1.02875   0.039715   1.06361   
-0.069523   1.03773   0.0345069   1.07584   
-0.0755604   1.04509   0.0273815   1.08588   
-0.0803708   1.05046   0.0186697   1.09334   
-0.0837099   1.05356   0.00879845   1.09792   
-0.0853743   1.05416   -0.00172683   1.09934   
-0.085216   1.05215   -0.0123394   1.09745   
-0.0831587   1.04753   -0.0224379   1.09218   
-0.0792138   1.04043   -0.0314155   1.08358   
-0.0734837   1.03111   -0.0386993   1.07185   
-0.0661795   1.02001   -0.0437903   1.05739   
-0.0575924   1.00769   -0.0463144   1.04078   
-0.0481389   0.994818   -0.0460649   1.02286   
-0.0382352   0.982211   -0.04305   1.00465   
-0.0285141   0.970692   -0.037537   0.987401   
-0.019285   0.961269   -0.0300272   0.972447   
-0.0116909   0.954622   -0.0214649   0.96124   
-0.00460946   0.952063   -0.0121823   0.95461   
0.000779275   0.961119   -0.000261837   0.96073   
0.000608808   0.947908   0.000896459   0.947605   
-0.00475947   0.944088   0.0159699   0.94688   
-0.0116389   0.949094   0.0254089   0.95598   
-0.0190105   0.957403   0.0340603   0.968846   
-0.0280189   0.967989   0.0416026   0.984938   
-0.037729   0.980322   0.047491   1.0031   