<VTKFile type="UnstructuredGrid"  version="0.1"   > 
<UnstructuredGrid> 
<Piece  NumberOfPoints="  10000" NumberOfCells=" 9801"> 
<Points> 
<DataArray  type="Float64"  NumberOfComponents="3"  format="ascii" > 
0.000000 0.000000 0.0 
0.202020 0.000000 0.0 
0.404040 0.000000 0.0 
0.606061 0.000000 0.0 
0.808081 0.000000 0.0 
1.010101 0.000000 0.0 
1.212121 0.000000 0.0 
1.414141 0.000000 0.0 
1.616162 0.000000 0.0 
1.818182 0.000000 0.0 
2.020202 0.000000 0.0 
2.222222 0.000000 0.0 
2.424242 0.000000 0.0 
2.626263 0.000000 0.0 
2.828283 0.000000 0.0 
3.030303 0.000000 0.0 
3.232323 0.000000 0.0 
3.434343 0.000000 0.0 
3.636364 0.000000 0.0 
3.838384 0.000000 0.0 
4.040404 0.000000 0.0 
4.242424 0.000000 0.0 
4.444444 0.000000 0.0 
4.646465 0.000000 0.0 
4.848485 0.000000 0.0 
5.050505 0.000000 0.0 
5.252525 0.000000 0.0 
5.454545 0.000000 0.0 
5.656566 0.000000 0.0 
5.858586 0.000000 0.0 
6.060606 0.000000 0.0 
6.262626 0.000000 0.0 
6.464646 0.000000 0.0 
6.666667 0.000000 0.0 
6.868687 0.000000 0.0 
7.070707 0.000000 0.0 
7.272727 0.000000 0.0 
7.474747 0.000000 0.0 
7.676768 0.000000 0.0 
7.878788 0.000000 0.0 
8.080808 0.000000 0.0 
8.282828 0.000000 0.0 
8.484848 0.000000 0.0 
8.686869 0.000000 0.0 
8.888889 0.000000 0.0 
9.090909 0.000000 0.0 
9.292929 0.000000 0.0 
9.494949 0.000000 0.0 
9.696970 0.000000 0.0 
9.898990 0.000000 0.0 
10.101010 0.000000 0.0 
10.303030 0.000000 0.0 
10.505051 0.000000 0.0 
10.707071 0.000000 0.0 
10.909091 0.000000 0.0 
11.111111 0.000000 0.0 
11.313131 0.000000 0.0 
11.515152 0.000000 0.0 
11.717172 0.000000 0.0 
11.919192 0.000000 0.0 
12.121212 0.000000 0.0 
12.323232 0.000000 0.0 
12.525253 0.000000 0.0 
12.727273 0.000000 0.0 
12.929293 0.000000 0.0 
13.131313 0.000000 0.0 
13.333333 0.000000 0.0 
13.535354 0.000000 0.0 
13.737374 0.000000 0.0 
13.939394 0.000000 0.0 
14.141414 0.000000 0.0 
14.343434 0.000000 0.0 
14.545455 0.000000 0.0 
14.747475 0.000000 0.0 
14.949495 0.000000 0.0 
15.151515 0.000000 0.0 
15.353535 0.000000 0.0 
15.555556 0.000000 0.0 
15.757576 0.000000 0.0 
15.959596 0.000000 0.0 
16.161616 0.000000 0.0 
16.363636 0.000000 0.0 
16.565657 0.000000 0.0 
16.767677 0.000000 0.0 
16.969697 0.000000 0.0 
17.171717 0.000000 0.0 
17.373737 0.000000 0.0 
17.575758 0.000000 0.0 
17.777778 0.000000 0.0 
17.979798 0.000000 0.0 
18.181818 0.000000 0.0 
18.383838 0.000000 0.0 
18.585859 0.000000 0.0 
18.787879 0.000000 0.0 
18.989899 0.000000 0.0 
19.191919 0.000000 0.0 
19.393939 0.000000 0.0 
19.595960 0.000000 0.0 
19.797980 0.000000 0.0 
20.000000 0.000000 0.0 
0.000000 0.202020 0.0 
0.202020 0.202020 0.0 
0.404040 0.202020 0.0 
0.606061 0.202020 0.0 
0.808081 0.202020 0.0 
1.010101 0.202020 0.0 
1.212121 0.202020 0.0 
1.414141 0.202020 0.0 
1.616162 0.202020 0.0 
1.818182 0.202020 0.0 
2.020202 0.202020 0.0 
2.222222 0.202020 0.0 
2.424242 0.202020 0.0 
2.626263 0.202020 0.0 
2.828283 0.202020 0.0 
3.030303 0.202020 0.0 
3.232323 0.202020 0.0 
3.434343 0.202020 0.0 
3.636364 0.202020 0.0 
3.838384 0.202020 0.0 
4.040404 0.202020 0.0 
4.242424 0.202020 0.0 
4.444444 0.202020 0.0 
4.646465 0.202020 0.0 
4.848485 0.202020 0.0 
5.050505 0.202020 0.0 
5.252525 0.202020 0.0 
5.454545 0.202020 0.0 
5.656566 0.202020 0.0 
5.858586 0.202020 0.0 
6.060606 0.202020 0.0 
6.262626 0.202020 0.0 
6.464646 0.202020 0.0 
6.666667 0.202020 0.0 
6.868687 0.202020 0.0 
7.070707 0.202020 0.0 
7.272727 0.202020 0.0 
7.474747 0.202020 0.0 
7.676768 0.202020 0.0 
7.878788 0.202020 0.0 
8.080808 0.202020 0.0 
8.282828 0.202020 0.0 
8.484848 0.202020 0.0 
8.686869 0.202020 0.0 
8.888889 0.202020 0.0 
9.090909 0.202020 0.0 
9.292929 0.202020 0.0 
9.494949 0.202020 0.0 
9.696970 0.202020 0.0 
9.898990 0.202020 0.0 
10.101010 0.202020 0.0 
10.303030 0.202020 0.0 
10.505051 0.202020 0.0 
10.707071 0.202020 0.0 
10.909091 0.202020 0.0 
11.111111 0.202020 0.0 
11.313131 0.202020 0.0 
11.515152 0.202020 0.0 
11.717172 0.202020 0.0 
11.919192 0.202020 0.0 
12.121212 0.202020 0.0 
12.323232 0.202020 0.0 
12.525253 0.202020 0.0 
12.727273 0.202020 0.0 
12.929293 0.202020 0.0 
13.131313 0.202020 0.0 
13.333333 0.202020 0.0 
13.535354 0.202020 0.0 
13.737374 0.202020 0.0 
13.939394 0.202020 0.0 
14.141414 0.202020 0.0 
14.343434 0.202020 0.0 
14.545455 0.202020 0.0 
14.747475 0.202020 0.0 
14.949495 0.202020 0.0 
15.151515 0.202020 0.0 
15.353535 0.202020 0.0 
15.555556 0.202020 0.0 
15.757576 0.202020 0.0 
15.959596 0.202020 0.0 
16.161616 0.202020 0.0 
16.363636 0.202020 0.0 
16.565657 0.202020 0.0 
16.767677 0.202020 0.0 
16.969697 0.202020 0.0 
17.171717 0.202020 0.0 
17.373737 0.202020 0.0 
17.575758 0.202020 0.0 
17.777778 0.202020 0.0 
17.979798 0.202020 0.0 
18.181818 0.202020 0.0 
18.383838 0.202020 0.0 
18.585859 0.202020 0.0 
18.787879 0.202020 0.0 
18.989899 0.202020 0.0 
19.191919 0.202020 0.0 
19.393939 0.202020 0.0 
19.595960 0.202020 0.0 
19.797980 0.202020 0.0 
20.000000 0.202020 0.0 
0.000000 0.404040 0.0 
0.202020 0.404040 0.0 
0.404040 0.404040 0.0 
0.606061 0.404040 0.0 
0.808081 0.404040 0.0 
1.010101 0.404040 0.0 
1.212121 0.404040 0.0 
1.414141 0.404040 0.0 
1.616162 0.404040 0.0 
1.818182 0.404040 0.0 
2.020202 0.404040 0.0 
2.222222 0.404040 0.0 
2.424242 0.404040 0.0 
2.626263 0.404040 0.0 
2.828283 0.404040 0.0 
3.030303 0.404040 0.0 
3.232323 0.404040 0.0 
3.434343 0.404040 0.0 
3.636364 0.404040 0.0 
3.838384 0.404040 0.0 
4.040404 0.404040 0.0 
4.242424 0.404040 0.0 
4.444444 0.404040 0.0 
4.646465 0.404040 0.0 
4.848485 0.404040 0.0 
5.050505 0.404040 0.0 
5.252525 0.404040 0.0 
5.454545 0.404040 0.0 
5.656566 0.404040 0.0 
5.858586 0.404040 0.0 
6.060606 0.404040 0.0 
6.262626 0.404040 0.0 
6.464646 0.404040 0.0 
6.666667 0.404040 0.0 
6.868687 0.404040 0.0 
7.070707 0.404040 0.0 
7.272727 0.404040 0.0 
7.474747 0.404040 0.0 
7.676768 0.404040 0.0 
7.878788 0.404040 0.0 
8.080808 0.404040 0.0 
8.282828 0.404040 0.0 
8.484848 0.404040 0.0 
8.686869 0.404040 0.0 
8.888889 0.404040 0.0 
9.090909 0.404040 0.0 
9.292929 0.404040 0.0 
9.494949 0.404040 0.0 
9.696970 0.404040 0.0 
9.898990 0.404040 0.0 
10.101010 0.404040 0.0 
10.303030 0.404040 0.0 
10.505051 0.404040 0.0 
10.707071 0.404040 0.0 
10.909091 0.404040 0.0 
11.111111 0.404040 0.0 
11.313131 0.404040 0.0 
11.515152 0.404040 0.0 
11.717172 0.404040 0.0 
11.919192 0.404040 0.0 
12.121212 0.404040 0.0 
12.323232 0.404040 0.0 
12.525253 0.404040 0.0 
12.727273 0.404040 0.0 
12.929293 0.404040 0.0 
13.131313 0.404040 0.0 
13.333333 0.404040 0.0 
13.535354 0.404040 0.0 
13.737374 0.404040 0.0 
13.939394 0.404040 0.0 
14.141414 0.404040 0.0 
14.343434 0.404040 0.0 
14.545455 0.404040 0.0 
14.747475 0.404040 0.0 
14.949495 0.404040 0.0 
15.151515 0.404040 0.0 
15.353535 0.404040 0.0 
15.555556 0.404040 0.0 
15.757576 0.404040 0.0 
15.959596 0.404040 0.0 
16.161616 0.404040 0.0 
16.363636 0.404040 0.0 
16.565657 0.404040 0.0 
16.767677 0.404040 0.0 
16.969697 0.404040 0.0 
17.171717 0.404040 0.0 
17.373737 0.404040 0.0 
17.575758 0.404040 0.0 
17.777778 0.404040 0.0 
17.979798 0.404040 0.0 
18.181818 0.404040 0.0 
18.383838 0.404040 0.0 
18.585859 0.404040 0.0 
18.787879 0.404040 0.0 
18.989899 0.404040 0.0 
19.191919 0.404040 0.0 
19.393939 0.404040 0.0 
19.595960 0.404040 0.0 
19.797980 0.404040 0.0 
20.000000 0.404040 0.0 
0.000000 0.606061 0.0 
0.202020 0.606061 0.0 
0.404040 0.606061 0.0 
0.606061 0.606061 0.0 
0.808081 0.606061 0.0 
1.010101 0.606061 0.0 
1.212121 0.606061 0.0 
1.414141 0.606061 0.0 
1.616162 0.606061 0.0 
1.818182 0.606061 0.0 
2.020202 0.606061 0.0 
2.222222 0.606061 0.0 
2.424242 0.606061 0.0 
2.626263 0.606061 0.0 
2.828283 0.606061 0.0 
3.030303 0.606061 0.0 
3.232323 0.606061 0.0 
3.434343 0.606061 0.0 
3.636364 0.606061 0.0 
3.838384 0.606061 0.0 
4.040404 0.606061 0.0 
4.242424 0.606061 0.0 
4.444444 0.606061 0.0 
4.646465 0.606061 0.0 
4.848485 0.606061 0.0 
5.050505 0.606061 0.0 
5.252525 0.606061 0.0 
5.454545 0.606061 0.0 
5.656566 0.606061 0.0 
5.858586 0.606061 0.0 
6.060606 0.606061 0.0 
6.262626 0.606061 0.0 
6.464646 0.606061 0.0 
6.666667 0.606061 0.0 
6.868687 0.606061 0.0 
7.070707 0.606061 0.0 
7.272727 0.606061 0.0 
7.474747 0.606061 0.0 
7.676768 0.606061 0.0 
7.878788 0.606061 0.0 
8.080808 0.606061 0.0 
8.282828 0.606061 0.0 
8.484848 0.606061 0.0 
8.686869 0.606061 0.0 
8.888889 0.606061 0.0 
9.090909 0.606061 0.0 
9.292929 0.606061 0.0 
9.494949 0.606061 0.0 
9.696970 0.606061 0.0 
9.898990 0.606061 0.0 
10.101010 0.606061 0.0 
10.303030 0.606061 0.0 
10.505051 0.606061 0.0 
10.707071 0.606061 0.0 
10.909091 0.606061 0.0 
11.111111 0.606061 0.0 
11.313131 0.606061 0.0 
11.515152 0.606061 0.0 
11.717172 0.606061 0.0 
11.919192 0.606061 0.0 
12.121212 0.606061 0.0 
12.323232 0.606061 0.0 
12.525253 0.606061 0.0 
12.727273 0.606061 0.0 
12.929293 0.606061 0.0 
13.131313 0.606061 0.0 
13.333333 0.606061 0.0 
13.535354 0.606061 0.0 
13.737374 0.606061 0.0 
13.939394 0.606061 0.0 
14.141414 0.606061 0.0 
14.343434 0.606061 0.0 
14.545455 0.606061 0.0 
14.747475 0.606061 0.0 
14.949495 0.606061 0.0 
15.151515 0.606061 0.0 
15.353535 0.606061 0.0 
15.555556 0.606061 0.0 
15.757576 0.606061 0.0 
15.959596 0.606061 0.0 
16.161616 0.606061 0.0 
16.363636 0.606061 0.0 
16.565657 0.606061 0.0 
16.767677 0.606061 0.0 
16.969697 0.606061 0.0 
17.171717 0.606061 0.0 
17.373737 0.606061 0.0 
17.575758 0.606061 0.0 
17.777778 0.606061 0.0 
17.979798 0.606061 0.0 
18.181818 0.606061 0.0 
18.383838 0.606061 0.0 
18.585859 0.606061 0.0 
18.787879 0.606061 0.0 
18.989899 0.606061 0.0 
19.191919 0.606061 0.0 
19.393939 0.606061 0.0 
19.595960 0.606061 0.0 
19.797980 0.606061 0.0 
20.000000 0.606061 0.0 
0.000000 0.808081 0.0 
0.202020 0.808081 0.0 
0.404040 0.808081 0.0 
0.606061 0.808081 0.0 
0.808081 0.808081 0.0 
1.010101 0.808081 0.0 
1.212121 0.808081 0.0 
1.414141 0.808081 0.0 
1.616162 0.808081 0.0 
1.818182 0.808081 0.0 
2.020202 0.808081 0.0 
2.222222 0.808081 0.0 
2.424242 0.808081 0.0 
2.626263 0.808081 0.0 
2.828283 0.808081 0.0 
3.030303 0.808081 0.0 
[...]
<PointData  Vectors="sigma"> 
<DataArray  type="Float64"  Name="sigma" NumberOfComponents="4" format="ascii"> 
0.0168401   0.00576188   0.0083648   0.0207284   
0.0177028   0.00790589   0.00903991   0.0219339   
0.0180965   0.00897587   0.00947315   0.0226901   
0.018384   0.00981069   0.00981567   0.0233003   
0.0186086   0.0105131   0.0101113   0.0238304   
0.0187948   0.0111404   0.0103779   0.024312   
0.0189534   0.0117184   0.0106243   0.0247603   
0.0190908   0.0122621   0.0108554   0.0251842   
0.019211   0.0127813   0.0110742   0.025589   
0.0193166   0.0132824   0.0112824   0.025978   
0.0194095   0.0137702   0.0114809   0.0263535   
0.0194912   0.0142482   0.0116703   0.0267169   
0.0195626   0.0147189   0.0118508   0.0270689   
0.0196247   0.0151844   0.0120222   0.02741   
0.0196779   0.0156461   0.0121844   0.0277402   
0.0197228   0.016105   0.012337   0.0280594   
0.0197597   0.016562   0.0124795   0.0283672   
0.0197889   0.0170176   0.0126113   0.0286631   
0.0198105   0.0174719   0.0127318   0.0289464   
0.0198248   0.017925   0.0128403   0.0292163   
0.0198318   0.0183766   0.0129362   0.0294719   
0.0198316   0.0188264   0.0130186   0.0297123   
0.0198242   0.0192737   0.0130868   0.0299363   
0.0198095   0.0197179   0.0131402   0.0301431   
0.0197876   0.0201579   0.013178   0.0303314   
0.0197584   0.0205928   0.0131995   0.0305001   
0.0197219   0.0210213   0.0132041   0.0306482   
0.0196779   0.0214421   0.0131911   0.0307744   
0.0196265   0.0218537   0.0131601   0.0308777   
0.0195675   0.0222544   0.0131106   0.0309571   
0.0195008   0.0226427   0.0130421   0.0310115   
0.0194265   0.0230166   0.0129545   0.0310399   
0.0193443   0.0233744   0.0128474   0.0310414   
0.0192543   0.023714   0.0127209   0.0310153   
0.0191564   0.0240335   0.0125749   0.0309607   
0.0190506   0.024331   0.0124096   0.0308771   
0.0189367   0.0246043   0.0122253   0.0307639   
0.0188148   0.0248514   0.0120224   0.0306207   
0.0186848   0.0250704   0.0118015   0.0304473   
0.0185468   0.0252594   0.0115632   0.0302434   
0.0184007   0.0254165   0.0113085   0.0300091   
0.0182466   0.0255399   0.0110382   0.0297445   
0.0180846   0.0256281   0.0107536   0.0294499   
0.0179146   0.0256796   0.0104557   0.0291256   
0.0177368   0.025693   0.010146   0.0287722   
0.0175512   0.0256674   0.00982593   0.0283903   
0.017358   0.0256016   0.00949702   0.0279809   
0.0171573   0.0254951   0.00916091   0.0275448   
0.0169493   0.0253475   0.00881932   0.0270831   
0.0167341   0.0251584   0.00847401   0.0265969   
0.016512   0.0249279   0.00812678   0.0260877   
0.0162831   0.0246563   0.00777946   0.0255569   
0.0160478   0.0243443   0.00743387   0.0250058   
0.0158063   0.0239925   0.00709184   0.0244362   
0.0155588   0.0236022   0.00675519   0.0238498   
0.0153059   0.0231745   0.00642565   0.0232484   
0.0150477   0.0227112   0.00610496   0.0226339   
0.0147848   0.0222139   0.00579475   0.0220081   
0.0145176   0.0216848   0.0054966   0.0213733   
0.0142466   0.0211261   0.00521198   0.0207315   
0.0139722   0.0205402   0.00494229   0.020085   
0.0136952   0.0199297   0.0046888   0.0194362   
0.013416   0.0192975   0.00445269   0.0187874   
0.0131355   0.0186465   0.00423501   0.0181414   
0.0128541   0.0179798   0.0040367   0.0175007   
0.0125729   0.0173007   0.00385857   0.0168682   
0.0122925   0.0166123   0.0037013   0.0162471   
0.0120138   0.0159183   0.00356543   0.0156404   
0.0117377   0.0152221   0.00345139   0.0150516   
0.0114653   0.0145273   0.00335944   0.0144842   
0.0111975   0.0138376   0.00328972   0.0139421   
0.0109354   0.0131567   0.0032422   0.0134292   
0.0106801   0.0124883   0.00321674   0.0129495   
0.0104328   0.0118363   0.003213   0.0125071   
0.0101947   0.0112045   0.00323051   0.012106   
0.00996706   0.0105966   0.00326861   0.0117501   
0.00975106   0.0100165   0.00332649   0.0114428   
0.00954802   0.00946778   0.00340313   0.011187   
0.00935923   0.00895427   0.00349735   0.0109847   
0.00918598   0.00847956   0.00360776   0.010837   
0.00902955   0.00804716   0.00373277   0.0107437   
0.00889119   0.00766047   0.00387057   0.0107037   
0.00877214   0.00732273   0.00401915   0.0107144   
0.00867357   0.00703702   0.00417627   0.0107721   
0.00859659   0.0068062   0.00433945   0.0108723   
0.00854223   0.00663292   0.00450596   0.0110098   
0.00851146   0.00651956   0.00467285   0.0111788   
0.00850514   0.00646825   0.00483689   0.0113732   
0.00852404   0.00648087   0.00499456   0.0115868   
0.00856881   0.00655901   0.00514205   0.0118137   
0.00864008   0.00670407   0.00527521   0.012048   
0.00873839   0.00691735   0.00538944   0.0122842   
0.00886437   0.00720023   0.00547964   0.012517   
0.00901887   0.00755461   0.00553996   0.0127417   
0.00920328   0.00798366   0.00556342   0.0129545   
0.00942049   0.0084939   0.00554122   0.0131526   
0.00967583   0.00909845   0.00546055   0.013335   
0.00998944   0.00983866   0.00530275   0.0135153   
0.0103772   0.0107796   0.00501579   0.013693   
0.0112079   0.012718   0.00450112   0.0143388   
0.0189815   0.0064698   0.00889939   0.0227364   
0.0186688   0.00745075   0.00896756   0.0224987   
0.0188394   0.00859627   0.00932919   0.0229776   
0.0190126   0.00946393   0.00966216   0.0234773   
0.0191758   0.0102031   0.00996567   0.0239605   
0.0193222   0.0108568   0.0102439   0.0244182   
0.0194528   0.0114551   0.0105026   0.0248537   
0.0195692   0.0120149   0.0107456   0.0252704   
0.0196725   0.0125473   0.0109758   0.0256712   
0.0197639   0.0130598   0.0111947   0.0260581   
0.0198443   0.013558   0.0114035   0.0264327   
0.0199141   0.0140456   0.0116027   0.0267958   
0.0199741   0.0145256   0.0117927   0.0271482   
0.0200245   0.0150003   0.0119734   0.02749   
0.0200657   0.0154714   0.0121446   0.0278213   
0.020098   0.01594   0.012306   0.0281418   
0.0201214   0.0164071   0.0124572   0.0284513   
0.0201362   0.0168733   0.0125976   0.0287491   
0.0201424   0.0173388   0.0127267   0.0290347   
0.0201401   0.0178036   0.0128438   0.0293073   
0.0201293   0.0182678   0.0129482   0.029566   
0.0201101   0.0187307   0.0130391   0.02981   
0.0200825   0.019192   0.0131159   0.0300383   
0.0200465   0.0196508   0.0131778   0.0302498   
0.0200021   0.0201062   0.0132242   0.0304436   
0.0199493   0.0205571   0.0132543   0.0306185   
0.0198881   0.0210023   0.0132674   0.0307735   
0.0198186   0.0214404   0.013263   0.0309075   
0.0197408   0.0218698   0.0132405   0.0310193   
0.0196548   0.022289   0.0131995   0.0311079   
0.0195605   0.022696   0.0131394   0.0311723   
0.0194582   0.0230891   0.0130601   0.0312115   
0.019348   0.0234663   0.0129613   0.0312245   
0.0192298   0.0238254   0.0128428   0.0312105   
0.019104   0.0241645   0.0127048   0.0311686   
0.0189706   0.0244814   0.0125473   0.0310982   
0.0188298   0.0247739   0.0123705   0.0309986   
0.0186818   0.0250399   0.012175   0.0308692   
0.0185269   0.0252773   0.0119612   0.0307098   
0.0183652   0.025484   0.0117299   0.0305199   
0.018197   0.025658   0.0114818   0.0302995   
0.0180225   0.0257974   0.0112179   0.0300484   
0.017842   0.0259005   0.0109393   0.0297668   
0.0176558   0.0259658   0.0106472   0.0294549   
0.017464   0.0259917   0.010343   0.0291131   
0.017267   0.025977   0.0100282   0.028742   
0.0170649   0.0259208   0.0097042   0.0283421   
0.0168581   0.0258222   0.00937274   0.0279144   
0.0166468   0.0256807   0.0090355   0.0274597   
0.0164312   0.025496   0.00869427   0.0269791   
0.0162117   0.0252682   0.00835083   0.026474   
0.0159884   0.0249976   0.00800701   0.0259456   
0.0157615   0.0246846   0.00766466   0.0253954   
0.0155315   0.02433   0.00732559   0.0248252   
0.0152984   0.0239351   0.00699161   0.0242365   
0.0150626   0.0235012   0.00666446   0.0236314   
0.0148244   0.0230298   0.00634586   0.0230118   
0.014584   0.022523   0.00603742   0.0223797   
0.0143418   0.0219827   0.00574071   0.0217376   
0.0140981   0.0214113   0.00545718   0.0210875   
0.0138534   0.0208114   0.00518821   0.0204322   
0.0136079   0.0201857   0.00493503   0.0197741   
0.0133621   0.0195371   0.0046988   0.0191161   
0.0131166   0.0188687   0.00448054   0.0184609   
0.0128717   0.0181836   0.00428114   0.0178117   
0.0126281   0.0174853   0.00410139   0.0171716   
0.0123863   0.0167772   0.00394191   0.016544   
0.012147   0.0160629   0.00380323   0.0159325   
0.0119109   0.015346   0.00368571   0.0153407   
0.0116785   0.0146302   0.0035896   0.0147725   
0.0114507   0.0139194   0.00351499   0.0142319   
0.0112283   0.0132174   0.00346185   0.0137229   
0.0110119   0.0125282   0.00342997   0.0132496   
0.0108025   0.0118556   0.00341901   0.0128159   
0.0106009   0.0112036   0.00342849   0.0124255   
0.0104078   0.0105761   0.00345773   0.0120818   
0.0102243   0.00997716   0.00350592   0.0117875   
0.010051   0.00941062   0.00357205   0.0115445   
0.00988886   0.00888037   0.00365495   0.0113538   
0.00973867   0.00839019   0.00375326   0.0112156   
0.00960119   0.00794379   0.00386543   0.0111284   
0.00947715   0.00754476   0.00398969   0.0110901   
0.00936723   0.00719654   0.00412409   0.0110972   
0.00927202   0.00690241   0.00426647   0.0111455   
0.00919204   0.00666544   0.00441442   0.01123   
0.00912771   0.0064885   0.00456533   0.0113454   
0.00907933   0.00637419   0.00471637   0.0114858   
0.00904704   0.00632487   0.00486443   0.0116456   
0.00903083   0.00634265   0.00500619   0.0118191   
0.00903048   0.00642936   0.00513803   0.012001   
0.00904549   0.00658668   0.00525604   0.0121862   
0.00907501   0.00681617   0.00535598   0.0123701   
0.00911767   0.00711949   0.00543321   0.0125485   
0.00917118   0.00749875   0.00548263   0.012718   
0.00923159   0.00795722   0.00549867   0.0128759   
0.00929063   0.00849997   0.00547526   0.0130204   
0.00932997   0.0091375   0.00540929   0.0131556   
0.00927829   0.0098688   0.00529779   0.0132708   
0.0088769   0.0107102   0.00532711   0.0135487   
0.00939311   0.0119147   0.00514413   0.0140592   
0.0200832   0.0067609   0.00921135   0.0238288   
0.0198301   0.0074865   0.00919357   0.0235455   
0.0197163   0.00834699   0.00936037   0.0235941   
0.0197499   0.00918154   0.00962106   0.0238897   
0.0198245   0.00991766   0.00989362   0.0242571   
0.0199134   0.0105818   0.0101609   0.0246481   
0.0200037   0.0111923   0.0104179   0.0250425   
0.0200902   0.011764   0.010664   0.0254329   
0.0201702   0.0123074   0.0108997   0.0258162   
0.0202426   0.0128301   0.0111255   0.0261915   
0.0203066   0.0133378   0.0113421   0.0265582   
0.0203619   0.0138345   0.0115495   0.0269161   
0.0204082   0.0143235   0.0117481   0.0272652   
0.0204454   0.0148073   0.0119375   0.0276051   
0.0204735   0.0152875   0.0121177   0.0279356   
0.0204923   0.0157657   0.0122882   0.0282563   
0.0205019   0.0162428   0.0124486   0.0285666   
0.0205021   0.0167195   0.0125984   0.028866   
0.0204929   0.0171961   0.0127368   0.0291539   
0.0204744   0.0176727   0.0128633   0.0294293   
0.0204464   0.0181493   0.0129772   0.0296916   
0.020409   0.0186254   0.0130777   0.0299397   
0.0203621   0.0191006   0.0131641   0.0301729   
0.0203058   0.019574   0.0132356   0.0303899   
0.0202401   0.0200448   0.0132916   0.0305899   
0.020165   0.0205118   0.0133312   0.0307718   
0.0200807   0.0209738   0.0133538   0.0309345   
0.0199872   0.0214293   0.0133589   0.0310768   
0.0198846   0.0218768   0.0133457   0.0311977   
0.0197732   0.0223145   0.0133137   0.0312962   
0.0196531   0.0227406   0.0132626   0.0313711   
0.0195246   0.0231531   0.013192   0.0314214   
0.0193879   0.0235499   0.0131016   0.0314461   
0.0192433   0.0239289   0.0129913   0.0314443   
0.0190911   0.0242879   0.012861   0.0314151   
0.0189318   0.0246246   0.012711   0.0313577   
0.0187657   0.0249368   0.0125413   0.0312712   
0.0185931   0.0252221   0.0123524   0.0311552   
0.0184146   0.0254782   0.0121448   0.031009   
0.0182305   0.0257031   0.0119192   0.0308321   
0.0180412   0.0258945   0.0116764   0.0306244   
0.0178473   0.0260504   0.0114173   0.0303856   
0.0176491   0.026169   0.011143   0.0301155   
0.017447   0.0262484   0.0108548   0.0298145   
0.0172416   0.0262872   0.010554   0.0294825   
0.0170332   0.026284   0.0102421   0.0291201   
0.0168222   0.0262377   0.00992069   0.0287278   
0.0166089   0.0261474   0.00959138   0.0283063   
0.0163937   0.0260125   0.00925591   0.0278564   
0.0161769   0.0258326   0.00891609   0.0273791   
0.0159588   0.0256078   0.00857375   0.0268756   
0.0157396   0.0253383   0.00823073   0.0263474   
0.0155197   0.0250245   0.0078889   0.0257957   
0.0152992   0.0246675   0.0075501   0.0252224   
0.0150783   0.0242682   0.00721614   0.0246292   
0.0148573   0.0238281   0.0068888   0.024018   
0.0146363   0.023349   0.00656979   0.023391   
0.0144155   0.0228326   0.00626075   0.0227505   
0.0141952   0.0222813   0.00596322   0.0220987   
0.0139755   0.0216975   0.00567866   0.0214384   
0.0137567   0.0210838   0.00540843   0.0207722   
0.013539   0.020443   0.00515375   0.0201029   
0.0133226   0.0197782   0.00491577   0.0194336   
0.0131078   0.0190926   0.00469547   0.0187676   
0.012895   0.0183895   0.00449373   0.0181081   
0.0126845   0.0176723   0.0043113   0.0174586   
0.0124766   0.0169447   0.00414878   0.016823   
0.0122718   0.0162104   0.00400667   0.0162051   
0.0120705   0.0154732   0.00388532   0.0156088   
0.011873   0.0147368   0.00378493   0.0150383   
0.01168   0.0140053   0.00370559   0.0144977   
0.0114918   0.0132827   0.00364724   0.0139913   
0.011309   0.0125729   0.00360968   0.0135231   
0.011132   0.0118801   0.00359256   0.0130969   
0.0109614   0.0112084   0.00359538   0.0127162   
0.0107976   0.0105618   0.00361749   0.0123837   
0.0106412   0.00994447   0.0036581   0.0121017   
0.0104925   0.00936045   0.00371623   0.0118713   
0.010352   0.00881377   0.00379073   0.0116925   
0.01022   0.00830842   0.0038803   0.0115644   
0.0100968   0.00784825   0.00398343   0.0114848   
0.00998279   0.00743706   0.00409843   0.0114505   
0.00987802   0.00707845   0.00422343   0.0114573   
0.00978262   0.0067759   0.00435635   0.0115004   
0.00969654   0.00653269   0.0044949   0.0115744   
0.00961965   0.00635185   0.0046366   0.0116737   
0.00955161   0.0062362   0.00477876   0.0117927   
0.00949194   0.00618828   0.00491849   0.0119259   
0.00943986   0.00621036   0.00505268   0.0120683   
0.00939428   0.00630445   0.00517804   0.0122151   
0.0093536   0.00647232   0.0052911   0.0123624   
0.00931554   0.00671556   0.00538826   0.0125068   
0.00927664   0.00703569   0.00546589   0.0126458   
0.00923147   0.00743427   0.00552058   0.0127785   
0.00917084   0.00791295   0.00554978   0.0129055   
0.00907809   0.00847338   0.00555405   0.0130319   
0.00892042   0.00911358   0.00554105   0.0131698   
0.00863244   0.00982701   0.00555733   0.0133757   
0.00830851   0.0106038   0.00568305   0.0137936   
0.00873863   0.0116075   0.00557577   0.0142454   
0.0209287   0.00692782   0.00941737   0.0246389   
0.0207197   0.00753605   0.0093901   0.0243819   
0.0205749   0.00824707   0.00948173   0.024318   
0.0205111   0.00897901   0.00966171   0.0244378   
0.0205111   0.00967975   0.00988734   0.0246807   
0.020543   0.0103322   0.0101285   0.0249854   
0.0205904   0.0109422   0.0103723   0.0253209   
0.0206438   0.0115182   0.0106132   0.0256705   
0.0206975   0.0120678   0.0108485   0.0260253   
0.0207482   0.0125975   0.0110771   0.0263802   
0.0207937   0.0131126   0.0112985   0.0267325   
0.0208326   0.0136171   0.0115122   0.0270802   
0.0208639   0.0141141   0.0117181   0.0274221   
0.0208869   0.0146061   0.0119156   0.0277573   
0.0209012   0.015095   0.0121044   0.0280849   
0.0209062   0.0155823   0.012284   0.0284042   
0.0209017   0.0160691   0.0124539   0.0287145   
0.0208875   0.0165559   0.0126133   0.0290149   
0.0208633   0.0170434   0.0127618   0.0293046   
0.020829   0.0175316   0.0128985   0.0295829   
0.0207845   0.0180204   0.0130227   0.0298489   
0.0207297   0.0185096   0.0131336   0.0301015   
0.0206645   0.0189986   0.0132305   0.0303399   
0.020589   0.0194866   0.0133125   0.030563   
0.0205031   0.0199728   0.013379   0.0307697   
0.020407   0.020456   0.013429   0.0309591   
0.0203008   0.0209349   0.013462   0.03113   
0.0201847   0.021408   0.0134772   0.0312813   
0.0200588   0.0218738   0.013474   0.0314118   
0.0199235   0.0223303   0.0134518   0.0315205   
0.019779   0.0227758   0.0134101   0.0316063   
0.0196257   0.023208   0.0133486   0.031668   
0.0194641   0.023625   0.0132669   0.0317046   
0.0192945   0.0240243   0.0131648   0.031715   
0.0191175   0.0244038   0.0130422   0.0316983   
0.0189337   0.0247609   0.0128993   0.0316535   
0.0187434   0.0250932   0.0127362   0.0315799   
0.0185475   0.0253984   0.0125533   0.0314765   
0.0183463   0.0256741   0.0123511   0.0313428   
0.0181407   0.0259178   0.0121302   0.0311781   
0.0179312   0.0261272   0.0118914   0.030982   
0.0177184   0.0263003   0.0116357   0.0307542   
0.017503   0.026435   0.0113642   0.0304944   
0.0172856   0.0265293   0.0110781   0.0302025   
0.0170666   0.0265816   0.0107788   0.0298788   
0.0168468   0.0265904   0.0104678   0.0295234   
0.0166265   0.0265545   0.0101468   0.0291367   
0.0164062   0.026473   0.00981732   0.0287194   
0.0161864   0.0263451   0.00948126   0.0282722   
0.0159675   0.0261705   0.00914042   0.027796   
0.0157497   0.025949   0.0087967   0.0272921   
0.0155333   0.0256809   0.00845199   0.0267617   
0.0153186   0.0253667   0.00810819   0.0262064   
0.0151059   0.0250073   0.00776719   0.0256278   
0.0148951   0.0246038   0.00743085   0.0250277   
0.0146866   0.0241577   0.00710097   0.0244084   
0.0144803   0.0236708   0.00677929   0.0237719   
0.0142764   0.0231451   0.00646747   0.0231207   
0.014075   0.0225829   0.00616708   0.0224574   
0.0138761   0.0219866   0.00587957   0.0217848   
0.0136798   0.0213591   0.00560631   0.0211057   
0.0134862   0.0207033   0.00534853   0.0204234   
0.0132954   0.0200223   0.00510734   0.0197411   
0.0131075   0.0193196   0.00488373   0.0190624   
0.0129226   0.0185984   0.00467856   0.0183908   
0.0127409   0.0178625   0.00449256   0.0177303   
0.0125625   0.0171156   0.00432632   0.017085   
0.0123876   0.0163614   0.00418031   0.0164589   
0.0122164   0.015604   0.00405486   0.0158564   
0.0120491   0.0148472   0.00395018   0.0152819   
0.011886   0.0140952   0.00386633   0.0147398   
0.0117272   0.0133521   0.00380326   0.0142343   
0.011573   0.012622   0.00376077   0.0137697   
0.0114235   0.0119091   0.00373852   0.0133495   
0.0112791   0.0112178   0.00373604   0.0129771   
0.0111398   0.0105522   0.0037527   0.0126547   
0.0110057   0.00991649   0.00378773   0.0123841   
0.0108771   0.00931501   0.00384021   0.0121656   
0.0107538   0.0087519   0.00390905   0.0119985   
0.0106358   0.00823127   0.00399299   0.0118811   
0.0105232   0.00775719   0.00409061   0.0118102   
0.0104156   0.00733359   0.00420031   0.0117818   
0.0103128   0.00696427   0.0043203   0.0117911   
0.0102145   0.00665287   0.00444861   0.0118327   
0.0101202   0.00640285   0.00458309   0.0119009   
0.0100291   0.00621741   0.0047214   0.0119899   
0.00994044   0.00609954   0.00486103   0.0120944   
0.00985317   0.0060519   0.00499931   0.012209   
0.00976587   0.00607689   0.00513344   0.0123293   
0.00967672   0.00617656   0.00526052   0.0124515   
0.00958331   0.00635265   0.00537764   0.0125727   
0.0094823   0.00660653   0.00548203   0.0126915   
0.00936899   0.00693922   0.00557128   0.0128076   
0.00923651   0.00735119   0.00564396   0.0129235   
0.00907455   0.00784204   0.00570079   0.0130453   
0.00886805   0.00840926   0.00574687   0.0131857   
0.00859748   0.00904647   0.00579833   0.0133731   
0.00827323   0.00974102   0.00588365   0.01366   
0.0079378   0.0104541   0.00602093   0.0140737   
0.00834904   0.0114136   0.00595339   0.0145263   