<VTKFile type="UnstructuredGrid"  version="0.1"   > 
<UnstructuredGrid> 
<Piece  NumberOfPoints="  81" NumberOfCells=" 64"> 
<Points> 
<DataArray  type="Float64"  NumberOfComponents="3"  format="ascii" > 
0.000000 0.000000 0.0 
0.112695 0.000000 0.0 
0.226562 0.000000 0.0 
0.342773 0.000000 0.0 
0.462500 0.000000 0.0 
0.586914 0.000000 0.0 
0.717188 0.000000 0.0 
0.854492 0.000000 0.0 
1.000000 0.000000 0.0 
0.000000 0.112695 0.0 
0.112695 0.112695 0.0 
0.226562 0.112695 0.0 
0.342773 0.112695 0.0 
0.462500 0.112695 0.0 
0.586914 0.112695 0.0 
0.717187 0.112695 0.0 
0.854492 0.112695 0.0 
1.000000 0.112695 0.0 
0.000000 0.226562 0.0 
0.112695 0.226562 0.0 
0.226562 0.226562 0.0 
0.342773 0.226562 0.0 
0.462500 0.226562 0.0 
0.586914 0.226562 0.0 
0.717188 0.226562 0.0 
0.854492 0.226562 0.0 
1.000000 0.226562 0.0 
0.000000 0.342773 0.0 
0.112695 0.342773 0.0 
0.226562 0.342773 0.0 
0.342773 0.342773 0.0 
0.462500 0.342773 0.0 
0.586914 0.342773 0.0 
0.717188 0.342773 0.0 
0.854492 0.342773 0.0 
1.000000 0.342773 0.0 
0.000000 0.462500 0.0 
0.112695 0.462500 0.0 
0.226562 0.462500 0.0 
0.342773 0.462500 0.0 
0.462500 0.462500 0.0 
0.586914 0.462500 0.0 
0.717188 0.462500 0.0 
0.854492 0.462500 0.0 
1.000000 0.462500 0.0 
0.000000 0.586914 0.0 
0.112695 0.586914 0.0 
0.226562 0.586914 0.0 
0.342773 0.586914 0.0 
0.462500 0.586914 0.0 
0.586914 0.586914 0.0 
0.717188 0.586914 0.0 
0.854492 0.586914 0.0 
1.000000 0.586914 0.0 
0.000000 0.717188 0.0 
0.112695 0.717188 0.0 
0.226562 0.717188 0.0 
0.342773 0.717188 0.0 
0.462500 0.717188 0.0 
0.586914 0.717188 0.0 
0.717188 0.717188 0.0 
0.854492 0.717188 0.0 
1.000000 0.717188 0.0 
0.000000 0.854492 0.0 
0.112695 0.854492 0.0 
0.226562 0.854492 0.0 
0.342773 0.854492 0.0 
0.462500 0.854492 0.0 
0.586914 0.854492 0.0 
0.717188 0.854492 0.0 
0.854492 0.854492 0.0 
1.000000 0.854492 0.0 
0.000000 1.000000 0.0 
0.112695 1.000000 0.0 
0.226562 1.000000 0.0 
0.342773 1.000000 0.0 
0.462500 1.000000 0.0 
0.586914 1.000000 0.0 
0.717188 1.000000 0.0 
0.854492 1.000000 0.0 
1.000000 1.000000 0.0 
</DataArray> 
</Points> 
<Cells> 
<DataArray  type="Int32"  Name="connectivity"  format="ascii"> 
0 1 10 9 
1 2 11 10 
2 3 12 11 
3 4 13 12 
4 5 14 13 
5 6 15 14 
6 7 16 15 
7 8 17 16 
9 10 19 18 
10 11 20 19 
11 12 21 20 
12 13 22 21 
13 14 23 22 
14 15 24 23 
15 16 25 24 
16 17 26 25 
18 19 28 27 
19 20 29 28 
20 21 30 29 
21 22 31 30 
22 23 32 31 
23 24 33 32 
24 25 34 33 
25 26 35 34 
27 28 37 36 
28 29 38 37 
29 30 39 38 
30 31 40 39 
31 32 41 40 
32 33 42 41 
33 34 43 42 
34 35 44 43 
36 37 46 45 
37 38 47 46 
38 39 48 47 
39 40 49 48 
40 41 50 49 
41 42 51 50 
42 43 52 51 
43 44 53 52 
45 46 55 54 
46 47 56 55 
47 48 57 56 
48 49 58 57 
49 50 59 58 
50 51 60 59 
51 52 61 60 
52 53 62 61 
54 55 64 63 
55 56 65 64 
56 57 66 65 
57 58 67 66 
58 59 68 67 
59 60 69 68 
60 61 70 69 
61 62 71 70 
63 64 73 72 
64 65 74 73 
65 66 75 74 
66 67 76 75 
67 68 77 76 
68 69 78 77 
69 70 79 78 
70 71 80 79 
</DataArray> 
<DataArray  type="Int32"  Name="offsets"  format="ascii"> 
4 
8 
12 
16 
20 
24 
28 
32 
36 
40 
44 
48 
52 
56 
60 
64 
68 
72 
76 
80 
84 
88 
92 
96 
100 
104 
108 
112 
116 
120 
124 
128 
132 
136 
140 
144 
148 
152 
156 
160 
164 
168 
172 
176 
180 
184 
188 
192 
196 
200 
204 
208 
212 
216 
220 
224 
228 
232 
236 
240 
244 
248 
252 
256 
</DataArray> 
<DataArray  type="UInt8"  Name="types"  format="ascii"> 
9 
9 
9 
9 
9 
9 
9 
9 
9 
9 
9 
9 
9 
9 
9 
9 
9 
9 
9 
9 
9 
9 
9 
9 
9 
9 
9 
9 
9 
9 
9 
9 
9 
9 
9 
9 
9 
9 
9 
9 
9 
9 
9 
9 
9 
9 
9 
9 
9 
9 
9 
9 
9 
9 
9 
9 
9 
9 
9 
9 
9 
9 
9 
9 
</DataArray> 
</Cells> 
<PointData  Vectors="sigma"> 
<DataArray  type="Float64"  Name="sigma" NumberOfComponents="3" format="ascii"> 
109.89   -6.34515e-12   -2.26709e-12   
109.89   2.13163e-13   4.65688e-14   
109.89   7.10543e-15   9.29577e-14   
109.89   -4.9738e-14   -3.41367e-14   
109.89   -5.68434e-14   1.59443e-13   
109.89   2.84217e-14   -4.60931e-15   
109.89   3.90799e-13   -2.13047e-13   
109.89   -3.90799e-13   1.97402e-14   
109.89   4.34852e-12   -1.09929e-12   
109.89   1.42109e-13   1.68135e-13   
109.89   -2.13163e-14   -4.70377e-14   
109.89   0   -4.67041e-14   
109.89   -2.84217e-14   5.33761e-15   
109.89   7.10543e-15   -2.43528e-14   
109.89   7.10543e-15   -1.01415e-13   
109.89   1.13687e-13   1.8348e-14   
109.89   -2.06057e-13   -1.39445e-13   
109.89   6.75016e-13   -7.47265e-14   
109.89   -6.39488e-14   -9.07394e-14   
109.89   -3.55271e-14   -6.20497e-14   
109.89   2.84217e-14   -4.20337e-14   
109.89   0   -4.13665e-14   
109.89   -8.52651e-14   -4.87057e-14   
109.89   4.26326e-14   -4.00321e-15   
109.89   -7.10543e-15   1.80144e-14   
109.89   1.84741e-13   -9.20738e-14   
109.89   -5.82645e-13   1.94823e-13   
109.89   -7.10543e-14   1.60128e-14   
109.89   -8.52651e-14   -3.40273e-14   
109.89   2.84217e-14   -6.33841e-14   
109.89   3.55271e-14   -1.04751e-13   
109.89   7.10543e-15   -8.13986e-14   
109.89   -2.13163e-14   -6.53857e-14   
109.89   -7.10543e-15   -4.73713e-14   
109.89   -2.13163e-13   5.87137e-14   
109.89   9.166e-13   -3.73633e-13   
109.89   1.27898e-13   1.49453e-13   
109.89   4.9738e-14   -6.00481e-14   
109.89   -4.9738e-14   -2.13504e-14   
109.89   9.23706e-14   -5.87137e-14   
109.89   -9.23706e-14   -7.07233e-14   
109.89   7.10543e-15   -2.26848e-14   
109.89   -2.34479e-13   -2.40192e-14   
109.89   3.48166e-13   -6.00481e-14   
109.89   -9.73444e-13   1.22765e-13   
109.89   -6.39488e-14   -1.92154e-13   
109.89   1.42109e-14   1.06752e-14   
109.89   -5.68434e-14   -7.6061e-14   
109.89   -4.9738e-14   -4.53697e-14   
109.89   -7.10543e-15   -4.13665e-14   
109.89   -3.55271e-14   6.40513e-14   
109.89   4.9738e-14   1.3344e-15   
109.89   -2.98428e-13   1.3344e-15   
109.89   9.45022e-13   -1.60128e-14   
109.89   1.27898e-13   8.54018e-14   
109.89   -2.13163e-14   -2.0016e-14   
109.89   0   -1.3344e-14   
109.89   -2.13163e-14   -7.6061e-14   
109.89   -5.68434e-14   -6.27169e-14   
109.89   -6.39488e-14   -6.40513e-14   
109.89   -1.06581e-13   -5.33761e-15   
109.89   2.06057e-13   0   
109.89   -1.15108e-12   -4.80385e-14   
109.89   -4.33431e-13   -1.70804e-13   
109.89   -6.39488e-14   2.93569e-14   
109.89   2.84217e-14   -2.40192e-14   
109.89   -2.13163e-14   -8.00642e-14   
109.89   -3.76588e-13   1.60128e-14   
109.89   9.23706e-14   2.0016e-13   
109.89   -1.63425e-13   -4.27009e-14   
109.89   -6.39488e-14   7.73954e-14   
109.89   3.76588e-13   -6.40513e-14   
109.89   3.31823e-12   -1.70804e-12   
109.89   7.60281e-13   2.88231e-13   
109.89   -7.10543e-14   -1.06752e-13   
109.89   9.23706e-14   -1.49453e-13   
109.89   -4.54747e-13   -4.27009e-14   
109.89   3.19744e-13   -4.37684e-13   
109.89   3.2685e-13   -1.49453e-13   
109.89   -6.11067e-13   -2.13504e-14   
109.89   4.31299e-12   1.49453e-12   
</DataArray> 
<DataArray  type="Float64"  Name="U" NumberOfComponents="3" format="ascii"> 
0.000000000000   0.000000000000   0.0
0.045078125000   -0.000000000000   0.0
0.090625000000   -0.000000000000   0.0
0.137109375000   -0.000000000000   0.0
0.185000000000   -0.000000000000   0.0
0.234765625000   -0.000000000000   0.0
0.286875000000   -0.000000000000   0.0
0.341796875000   -0.000000000000   0.0
0.400000000000   -0.000000000000   0.0
0.000000000000   -0.019319196429   0.0
0.045078125000   -0.019319196429   0.0
0.090625000000   -0.019319196429   0.0
0.137109375000   -0.019319196429   0.0
0.185000000000   -0.019319196429   0.0
0.234765625000   -0.019319196429   0.0
0.286875000000   -0.019319196429   0.0
0.341796875000   -0.019319196429   0.0
0.400000000000   -0.019319196429   0.0
0.000000000000   -0.038839285714   0.0
0.045078125000   -0.038839285714   0.0
0.090625000000   -0.038839285714   0.0
0.137109375000   -0.038839285714   0.0
0.185000000000   -0.038839285714   0.0
0.234765625000   -0.038839285714   0.0
0.286875000000   -0.038839285714   0.0
0.341796875000   -0.038839285714   0.0
0.400000000000   -0.038839285714   0.0
0.000000000000   -0.058761160714   0.0
0.045078125000   -0.058761160714   0.0
0.090625000000   -0.058761160714   0.0
0.137109375000   -0.058761160714   0.0
0.185000000000   -0.058761160714   0.0
0.234765625000   -0.058761160714   0.0
0.286875000000   -0.058761160714   0.0
0.341796875000   -0.058761160714   0.0
0.400000000000   -0.058761160714   0.0
0.000000000000   -0.079285714286   0.0
0.045078125000   -0.079285714286   0.0
0.090625000000   -0.079285714286   0.0
0.137109375000   -0.079285714286   0.0
0.185000000000   -0.079285714286   0.0
0.234765625000   -0.079285714286   0.0
0.286875000000   -0.079285714286   0.0
0.341796875000   -0.079285714286   0.0
0.400000000000   -0.079285714286   0.0
0.000000000000   -0.100613839286   0.0
0.045078125000   -0.100613839286   0.0
0.090625000000   -0.100613839286   0.0
0.137109375000   -0.100613839286   0.0
0.185000000000   -0.100613839286   0.0
0.234765625000   -0.100613839286   0.0
0.286875000000   -0.100613839286   0.0
0.341796875000   -0.100613839286   0.0
0.400000000000   -0.100613839286   0.0
0.000000000000   -0.122946428571   0.0
0.045078125000   -0.122946428571   0.0
0.090625000000   -0.122946428571   0.0
0.137109375000   -0.122946428571   0.0
0.185000000000   -0.122946428571   0.0
0.234765625000   -0.122946428571   0.0
0.286875000000   -0.122946428571   0.0
0.341796875000   -0.122946428571   0.0
0.400000000000   -0.122946428571   0.0
0.000000000000   -0.146484375000   0.0
0.045078125000   -0.146484375000   0.0
0.090625000000   -0.146484375000   0.0
0.137109375000   -0.146484375000   0.0
0.185000000000   -0.146484375000   0.0
0.234765625000   -0.146484375000   0.0
0.286875000000   -0.146484375000   0.0
0.341796875000   -0.146484375000   0.0
0.400000000000   -0.146484375000   0.0
0.000000000000   -0.171428571429   0.0
0.045078125000   -0.171428571429   0.0
0.090625000000   -0.171428571429   0.0
0.137109375000   -0.171428571429   0.0
0.185000000000   -0.171428571429   0.0
0.234765625000   -0.171428571429   0.0
0.286875000000   -0.171428571429   0.0
0.341796875000   -0.171428571429   0.0
0.400000000000   -0.171428571429   0.0
</DataArray> 
</PointData> 
</Piece> 
</UnstructuredGrid> 
</VTKFile> 
