<VTKFile type="UnstructuredGrid"  version="0.1"   > 
<UnstructuredGrid> 
<Piece  NumberOfPoints="  1200" NumberOfCells=" 722"> 
<Points> 
<DataArray  type="Float64"  NumberOfComponents="3"  format="ascii" > 
0.000000 0.000000 0.000000 
0.750000 0.000000 0.000000 
1.250000 0.000000 0.000000 
1.750000 0.000000 0.000000 
2.250000 0.000000 0.000000 
2.750000 0.000000 0.000000 
3.250000 0.000000 0.000000 
3.750000 0.000000 0.000000 
4.250000 0.000000 0.000000 
4.750000 0.000000 0.000000 
5.250000 0.000000 0.000000 
5.750000 0.000000 0.000000 
6.250000 0.000000 0.000000 
6.750000 0.000000 0.000000 
7.250000 0.000000 0.000000 
7.750000 0.000000 0.000000 
8.250000 0.000000 0.000000 
8.750000 0.000000 0.000000 
9.250000 0.000000 0.000000 
10.000000 0.000000 0.000000 
0.000000 1.000000 0.000000 
0.750000 1.000000 0.000000 
1.250000 1.000000 0.000000 
1.750000 1.000000 0.000000 
2.250000 1.000000 0.000000 
2.750000 1.000000 0.000000 
3.250000 1.000000 0.000000 
3.750000 1.000000 0.000000 
4.250000 1.000000 0.000000 
4.750000 1.000000 0.000000 
5.250000 1.000000 0.000000 
5.750000 1.000000 0.000000 
6.250000 1.000000 0.000000 
6.750000 1.000000 0.000000 
7.250000 1.000000 0.000000 
7.750000 1.000000 0.000000 
8.250000 1.000000 0.000000 
8.750000 1.000000 0.000000 
9.250000 1.000000 0.000000 
10.000000 1.000000 0.000000 
0.000000 2.000000 0.000000 
0.750000 2.000000 0.000000 
1.250000 2.000000 0.000000 
1.750000 2.000000 0.000000 
2.250000 2.000000 0.000000 
2.750000 2.000000 0.000000 
3.250000 2.000000 0.000000 
3.750000 2.000000 0.000000 
4.250000 2.000000 0.000000 
4.750000 2.000000 0.000000 
5.250000 2.000000 0.000000 
5.750000 2.000000 0.000000 
6.250000 2.000000 0.000000 
6.750000 2.000000 0.000000 
7.250000 2.000000 0.000000 
7.750000 2.000000 0.000000 
8.250000 2.000000 0.000000 
8.750000 2.000000 0.000000 
9.250000 2.000000 0.000000 
10.000000 2.000000 0.000000 
0.000000 0.000000 0.750000 
0.750000 0.000000 0.750000 
1.250000 0.000000 0.750000 
1.750000 0.000000 0.750000 
2.250000 0.000000 0.750000 
2.750000 0.000000 0.750000 
3.250000 0.000000 0.750000 
3.750000 0.000000 0.750000 
4.250000 0.000000 0.750000 
4.750000 0.000000 0.750000 
5.250000 0.000000 0.750000 
5.750000 0.000000 0.750000 
6.250000 0.000000 0.750000 
6.750000 0.000000 0.750000 
7.250000 0.000000 0.750000 
7.750000 0.000000 0.750000 
8.250000 0.000000 0.750000 
8.750000 0.000000 0.750000 
9.250000 0.000000 0.750000 
10.000000 0.000000 0.750000 
0.000000 1.000000 0.750000 
0.750000 1.000000 0.750000 
1.250000 1.000000 0.750000 
1.750000 1.000000 0.750000 
2.250000 1.000000 0.750000 
2.750000 1.000000 0.750000 
3.250000 1.000000 0.750000 
3.750000 1.000000 0.750000 
4.250000 1.000000 0.750000 
4.750000 1.000000 0.750000 
5.250000 1.000000 0.750000 
5.750000 1.000000 0.750000 
6.250000 1.000000 0.750000 
6.750000 1.000000 0.750000 
7.250000 1.000000 0.750000 
7.750000 1.000000 0.750000 
8.250000 1.000000 0.750000 
8.750000 1.000000 0.750000 
9.250000 1.000000 0.750000 
10.000000 1.000000 0.750000 
0.000000 2.000000 0.750000 
0.750000 2.000000 0.750000 
1.250000 2.000000 0.750000 
1.750000 2.000000 0.750000 
2.250000 2.000000 0.750000 
2.750000 2.000000 0.750000 
3.250000 2.000000 0.750000 
3.750000 2.000000 0.750000 
4.250000 2.000000 0.750000 
4.750000 2.000000 0.750000 
5.250000 2.000000 0.750000 
5.750000 2.000000 0.750000 
6.250000 2.000000 0.750000 
6.750000 2.000000 0.750000 
7.250000 2.000000 0.750000 
7.750000 2.000000 0.750000 
8.250000 2.000000 0.750000 
8.750000 2.000000 0.750000 
9.250000 2.000000 0.750000 
10.000000 2.000000 0.750000 
0.000000 0.000000 1.250000 
0.750000 0.000000 1.250000 
1.250000 0.000000 1.250000 
1.750000 0.000000 1.250000 
2.250000 0.000000 1.250000 
2.750000 0.000000 1.250000 
3.250000 0.000000 1.250000 
3.750000 0.000000 1.250000 
4.250000 0.000000 1.250000 
4.750000 0.000000 1.250000 
5.250000 0.000000 1.250000 
5.750000 0.000000 1.250000 
6.250000 0.000000 1.250000 
6.750000 0.000000 1.250000 
7.250000 0.000000 1.250000 
7.750000 0.000000 1.250000 
8.250000 0.000000 1.250000 
8.750000 0.000000 1.250000 
9.250000 0.000000 1.250000 
10.000000 0.000000 1.250000 
0.000000 1.000000 1.250000 
0.750000 1.000000 1.250000 
1.250000 1.000000 1.250000 
1.750000 1.000000 1.250000 
2.250000 1.000000 1.250000 
2.750000 1.000000 1.250000 
3.250000 1.000000 1.250000 
3.750000 1.000000 1.250000 
4.250000 1.000000 1.250000 
4.750000 1.000000 1.250000 
5.250000 1.000000 1.250000 
5.750000 1.000000 1.250000 
6.250000 1.000000 1.250000 
6.750000 1.000000 1.250000 
7.250000 1.000000 1.250000 
7.750000 1.000000 1.250000 
8.250000 1.000000 1.250000 
8.750000 1.000000 1.250000 
9.250000 1.000000 1.250000 
10.000000 1.000000 1.250000 
0.000000 2.000000 1.250000 
0.750000 2.000000 1.250000 
1.250000 2.000000 1.250000 
1.750000 2.000000 1.250000 
2.250000 2.000000 1.250000 
2.750000 2.000000 1.250000 
3.250000 2.000000 1.250000 
3.750000 2.000000 1.250000 
4.250000 2.000000 1.250000 
4.750000 2.000000 1.250000 
5.250000 2.000000 1.250000 
5.750000 2.000000 1.250000 
6.250000 2.000000 1.250000 
6.750000 2.000000 1.250000 
7.250000 2.000000 1.250000 
7.750000 2.000000 1.250000 
8.250000 2.000000 1.250000 
8.750000 2.000000 1.250000 
9.250000 2.000000 1.250000 
10.000000 2.000000 1.250000 
0.000000 0.000000 1.750000 
0.750000 0.000000 1.750000 
1.250000 0.000000 1.750000 
1.750000 0.000000 1.750000 
2.250000 0.000000 1.750000 
2.750000 0.000000 1.750000 
3.250000 0.000000 1.750000 
3.750000 0.000000 1.750000 
4.250000 0.000000 1.750000 
4.750000 0.000000 1.750000 
5.250000 0.000000 1.750000 
5.750000 0.000000 1.750000 
6.250000 0.000000 1.750000 
6.750000 0.000000 1.750000 
7.250000 0.000000 1.750000 
7.750000 0.000000 1.750000 
8.250000 0.000000 1.750000 
8.750000 0.000000 1.750000 
9.250000 0.000000 1.750000 
10.000000 0.000000 1.750000 
0.000000 1.000000 1.750000 
0.750000 1.000000 1.750000 
1.250000 1.000000 1.750000 
1.750000 1.000000 1.750000 
2.250000 1.000000 1.750000 
2.750000 1.000000 1.750000 
3.250000 1.000000 1.750000 
3.750000 1.000000 1.750000 
4.250000 1.000000 1.750000 
4.750000 1.000000 1.750000 
5.250000 1.000000 1.750000 
5.750000 1.000000 1.750000 
6.250000 1.000000 1.750000 
6.750000 1.000000 1.750000 
7.250000 1.000000 1.750000 
7.750000 1.000000 1.750000 
8.250000 1.000000 1.750000 
8.750000 1.000000 1.750000 
9.250000 1.000000 1.750000 
10.000000 1.000000 1.750000 
0.000000 2.000000 1.750000 
0.750000 2.000000 1.750000 
1.250000 2.000000 1.750000 
1.750000 2.000000 1.750000 
2.250000 2.000000 1.750000 
2.750000 2.000000 1.750000 
3.250000 2.000000 1.750000 
3.750000 2.000000 1.750000 
4.250000 2.000000 1.750000 
4.750000 2.000000 1.750000 
5.250000 2.000000 1.750000 
5.750000 2.000000 1.750000 
6.250000 2.000000 1.750000 
6.750000 2.000000 1.750000 
7.250000 2.000000 1.750000 
7.750000 2.000000 1.750000 
8.250000 2.000000 1.750000 
8.750000 2.000000 1.750000 
9.250000 2.000000 1.750000 
10.000000 2.000000 1.750000 
0.000000 0.000000 2.250000 
0.750000 0.000000 2.250000 
1.250000 0.000000 2.250000 
1.750000 0.000000 2.250000 
2.250000 0.000000 2.250000 
2.750000 0.000000 2.250000 
3.250000 0.000000 2.250000 
3.750000 0.000000 2.250000 
4.250000 0.000000 2.250000 
4.750000 0.000000 2.250000 
5.250000 0.000000 2.250000 
5.750000 0.000000 2.250000 
6.250000 0.000000 2.250000 
6.750000 0.000000 2.250000 
7.250000 0.000000 2.250000 
7.750000 0.000000 2.250000 
8.250000 0.000000 2.250000 
8.750000 0.000000 2.250000 
9.250000 0.000000 2.250000 
10.000000 0.000000 2.250000 
0.000000 1.000000 2.250000 
0.750000 1.000000 2.250000 
1.250000 1.000000 2.250000 
1.750000 1.000000 2.250000 
2.250000 1.000000 2.250000 
2.750000 1.000000 2.250000 
3.250000 1.000000 2.250000 
3.750000 1.000000 2.250000 
4.250000 1.000000 2.250000 
4.750000 1.000000 2.250000 
5.250000 1.000000 2.250000 
5.750000 1.000000 2.250000 
6.250000 1.000000 2.250000 
6.750000 1.000000 2.250000 
7.250000 1.000000 2.250000 
7.750000 1.000000 2.250000 
8.250000 1.000000 2.250000 
8.750000 1.000000 2.250000 
9.250000 1.000000 2.250000 
10.000000 1.000000 2.250000 
0.000000 2.000000 2.250000 
0.750000 2.000000 2.250000 
1.250000 2.000000 2.250000 
1.750000 2.000000 2.250000 
2.250000 2.000000 2.250000 
2.750000 2.000000 2.250000 
3.250000 2.000000 2.250000 
3.750000 2.000000 2.250000 
4.250000 2.000000 2.250000 
4.750000 2.000000 2.250000 
5.250000 2.000000 2.250000 
5.750000 2.000000 2.250000 
6.250000 2.000000 2.250000 
6.750000 2.000000 2.250000 
7.250000 2.000000 2.250000 
7.750000 2.000000 2.250000 
8.250000 2.000000 2.250000 
8.750000 2.000000 2.250000 
9.250000 2.000000 2.250000 
10.000000 2.000000 2.250000 
0.000000 0.000000 2.750000 
0.750000 0.000000 2.750000 
1.250000 0.000000 2.750000 
1.750000 0.000000 2.750000 
2.250000 0.000000 2.750000 
2.750000 0.000000 2.750000 
3.250000 0.000000 2.750000 
3.750000 0.000000 2.750000 
4.250000 0.000000 2.750000 
4.750000 0.000000 2.750000 
5.250000 0.000000 2.750000 
5.750000 0.000000 2.750000 
6.250000 0.000000 2.750000 
6.750000 0.000000 2.750000 
7.250000 0.000000 2.750000 
7.750000 0.000000 2.750000 
8.250000 0.000000 2.750000 
8.750000 0.000000 2.750000 
9.250000 0.000000 2.750000 
10.000000 0.000000 2.750000 
0.000000 1.000000 2.750000 
0.750000 1.000000 2.750000 
1.250000 1.000000 2.750000 
1.750000 1.000000 2.750000 
2.250000 1.000000 2.750000 
2.750000 1.000000 2.750000 
3.250000 1.000000 2.750000 
3.750000 1.000000 2.750000 
4.250000 1.000000 2.750000 
4.750000 1.000000 2.750000 
5.250000 1.000000 2.750000 
5.750000 1.000000 2.750000 
6.250000 1.000000 2.750000 
6.750000 1.000000 2.750000 
7.250000 1.000000 2.750000 
7.750000 1.000000 2.750000 
8.250000 1.000000 2.750000 
8.750000 1.000000 2.750000 
9.250000 1.000000 2.750000 
10.000000 1.000000 2.750000 
0.000000 2.000000 2.750000 
0.750000 2.000000 2.750000 
1.250000 2.000000 2.750000 
1.750000 2.000000 2.750000 
2.250000 2.000000 2.750000 
2.750000 2.000000 2.750000 
3.250000 2.000000 2.750000 
3.750000 2.000000 2.750000 
4.250000 2.000000 2.750000 
[...]
<PointData  Vectors="sigma"> 
<DataArray  type="Float64"  Name="sigma" NumberOfComponents="6" format="ascii"> 
39248.751314   31495.864415   65661.592718   17.182517   10569.561107   34660.854507   
21461.363598   14084.196304   25438.016793   -2.195939   10423.574927   18867.534332   
21396.094344   14271.249557   26125.694935   2.449837   10764.796330   19042.086876   
20397.595261   13918.154321   25947.899962   -0.227611   10966.709869   18865.773150   
19919.528395   14278.103756   27624.659365   0.424162   11321.815334   19128.878183   
18874.061257   14380.706466   29011.792335   0.324218   11535.922374   19036.401186   
17379.689171   14274.368549   30151.966285   0.646730   11606.941894   18550.420131   
15414.793026   13884.607521   30818.789390   0.840696   11499.257729   17563.791287   
13224.077984   13319.765870   31128.348954   0.897282   11277.394676   16072.632097   
11131.167683   12742.035402   31297.168555   0.779697   11038.690150   14124.880555   
9483.983218   12329.516318   31570.446677   0.471540   10893.460270   11793.906636   
8547.797003   12218.959306   32138.334049   0.090841   10922.008990   9179.460194   
8427.851115   12460.200232   33061.521801   -0.363812   11158.309801   6409.787448   
9061.479149   13007.238128   34249.505070   -0.605831   11582.723853   3623.974761   
10238.149327   13739.184383   35510.043187   -1.047638   12132.774657   998.651742   
11735.166829   14518.146765   36606.830459   -0.800462   12736.957929   -1346.456267   
13228.185237   15182.258615   37324.339390   -2.115092   13308.569674   -3284.801257   
14632.185269   15609.127854   37342.330354   0.178978   13438.903996   -4950.084336   
15389.521691   15625.583612   36637.917642   -6.352536   12909.797921   -6515.422526   
15414.581327   14500.875698   32912.022283   22.165853   -22.627792   -6622.961319   
18508.451612   11126.454093   18531.788076   0.300823   12.771391   18176.380945   
36712.189445   28967.202687   59769.282162   3.043338   12.826286   34324.364570   
18508.451612   11126.454093   18531.788076   0.300823   12.771391   18176.380945   
17909.083946   10786.391612   17996.512183   0.970266   13.795141   18307.974850   
16483.600049   10003.427817   16812.806827   0.614976   14.574393   18223.250465   
15645.452620   10004.687661   17654.014825   0.632879   15.429956   18562.302221   
14313.234565   9820.022399   18370.338802   0.432303   16.023615   18618.593292   
12601.623018   9496.700266   19004.471493   0.297180   16.443682   18281.103401   
10487.599375   8957.617481   19322.682908   0.146810   16.613764   17430.820270   
8198.594521   8294.393754   19402.592029   0.068070   16.640141   16018.178593   
6032.811986   7643.598938   19400.736038   0.060425   16.606646   14075.875985   
4308.828790   7154.194109   19494.527073   0.122562   16.649587   11683.266538   
3270.945490   6941.835592   19824.773183   0.232558   16.834487   8966.017848   
3016.601435   7048.872123   20435.011119   0.320215   17.239650   6093.143014   
3498.112360   7443.565377   21267.296022   0.416313   17.743529   3238.757605   
4510.713006   8012.352043   22148.038372   0.341808   18.466777   630.253315   
5926.011893   8708.410720   23050.198577   0.336090   18.821800   -1628.260774   
7382.384132   9339.652352   23694.786286   -0.317343   19.438637   -3087.125343   
9280.211018   10255.817521   24849.936831   -0.782033   17.978141   -4171.966913   
10656.710527   10905.424704   25636.865779   -3.611077   16.753209   -3088.472942   
21461.363598   14084.196304   25438.016793   2.195939   -10423.574927   18867.534332   
39248.751314   31495.864415   65661.592718   -17.182517   -10569.561107   34660.854507   
21461.363598   14084.196304   25438.016793   2.195939   -10423.574927   18867.534332   
21396.094344   14271.249557   26125.694935   -2.449837   -10764.796330   19042.086876   
20397.595261   13918.154321   25947.899962   0.227611   -10966.709869   18865.773150   
19919.528395   14278.103756   27624.659365   -0.424162   -11321.815334   19128.878183   
18874.061257   14380.706466   29011.792335   -0.324218   -11535.922374   19036.401186   
17379.689171   14274.368549   30151.966285   -0.646730   -11606.941894   18550.420131   
15414.793026   13884.607521   30818.789390   -0.840696   -11499.257729   17563.791287   
13224.077984   13319.765870   31128.348954   -0.897282   -11277.394676   16072.632097   
11131.167683   12742.035402   31297.168555   -0.779697   -11038.690150   14124.880555   
9483.983218   12329.516318   31570.446677   -0.471540   -10893.460270   11793.906636   
8547.797003   12218.959306   32138.334049   -0.090841   -10922.008990   9179.460194   
8427.851115   12460.200232   33061.521801   0.363812   -11158.309801   6409.787448   
9061.479149   13007.238128   34249.505070   0.605831   -11582.723853   3623.974761   
10238.149327   13739.184383   35510.043187   1.047638   -12132.774657   998.651742   
11735.166829   14518.146765   36606.830459   0.800462   -12736.957929   -1346.456267   
13228.185237   15182.258615   37324.339390   2.115092   -13308.569674   -3284.801257   
14632.185269   15609.127854   37342.330354   -0.178978   -13438.903996   -4950.084336   
15389.521691   15625.583612   36637.917642   6.352536   -12909.797921   -6515.422526   
-7319.060785   -6534.778490   3659.527845   594.385648   -4717.575904   -1011.814130   
9984.935328   2627.070143   20296.269785   906.955841   -1581.147670   20892.693349   
10076.857360   256.055004   14732.467714   237.139475   -420.925968   18174.153528   
11595.823361   635.267565   16158.313900   322.206249   392.467857   19860.415297   
11632.166623   506.447047   17217.736025   224.503251   804.390521   20330.932368   
11266.663969   636.120191   19178.669112   130.047133   1206.096165   20929.516588   
10391.271426   695.620929   20992.895414   0.693786   1540.236650   20915.792444   
9275.415644   769.569644   22652.199336   -114.400882   1856.424662   20202.499511   
8057.750775   823.636813   24026.230703   -163.437877   2136.231258   18666.247076   
6949.965548   870.393420   25164.638482   -140.545996   2380.103454   16347.405413   
6092.407259   912.939225   26178.850730   -39.900326   2582.563430   13375.051758   
5597.698862   945.547115   27120.209187   97.240831   2746.304700   9920.351564   
5542.143841   965.329932   27961.561920   235.417373   2856.124201   6244.411993   
5939.849088   971.976562   28634.390631   346.784908   2909.034714   2620.116682   
6720.727714   944.888226   28988.454406   406.575989   2898.937064   -672.742014   
7794.559548   888.711238   28959.269105   452.347196   2841.124705   -3464.990428   
8579.872405   643.409517   28308.702607   484.262299   2657.213300   -5521.431060   
9979.146022   1031.348752   27890.909695   -57.650713   2419.676378   -7354.550187   
8378.780373   1027.189144   26399.105810   -303.023421   1079.275020   -7902.699609   
21258.134980   16913.062990   35057.600302   -13402.289427   4.658827   -8610.121347   
13782.454348   6464.445985   29290.003571   -569.380064   -672.382376   19099.855083   
-4649.007740   -3220.395091   12037.419464   -237.250681   -403.121073   -1390.541773   
13782.454348   6464.445985   29290.003571   -569.380064   -672.382376   19099.855083   
14108.698946   4094.478025   23495.369531   -530.989628   -1077.247564   16799.688738   
15295.795015   4249.279038   24505.047157   -461.144942   -1412.428476   18678.780635   
15306.647193   4022.276527   25262.687055   -399.992124   -1700.903879   19334.167538   
14789.278264   3994.089948   26849.287339   -319.168217   -1946.199000   20037.715827   
13744.873393   3871.704362   28226.238224   -233.627449   -2154.154728   20139.279477   
12344.431578   3698.352620   29345.793322   -154.189576   -2326.741704   19541.556670   
10779.432154   3475.300730   30143.429049   -101.626971   -2467.168656   18116.416458   
9328.224653   3259.191652   30749.040151   -86.757387   -2583.490521   15884.545342   
8214.818576   3107.311542   31371.013801   -107.382419   -2684.201422   12977.409915   
7622.340563   3057.648028   32135.903863   -147.237472   -2775.485649   9582.600544   
7627.267360   3112.387747   33033.297782   -184.585849   -2859.182124   5981.287605   
8224.613296   3260.246647   33977.193374   -200.945892   -2927.891455   2471.084881   
9375.874708   3499.470091   34848.580296   -176.681079   -2972.733454   -703.601420   
10820.786613   3714.927571   35353.763151   -101.537114   -2962.556690   -3205.762287   
13015.948507   4237.384575   35852.543365   158.990830   -2886.568359   -5073.774118   
14213.281848   4522.357934   35293.471143   555.297752   -2573.675388   -5652.354059   
19650.758116   7561.325894   36907.583898   1925.539661   -2130.107934   -6309.637301   
9984.935328   2627.070143   20296.269785   -906.955841   1581.147670   20892.693349   
-7319.060785   -6534.778490   3659.527845   -594.385648   4717.575904   -1011.814130   
9984.935328   2627.070143   20296.269785   -906.955841   1581.147670   20892.693349   
10076.857360   256.055004   14732.467714   -237.139475   420.925968   18174.153528   
11595.823361   635.267565   16158.313900   -322.206249   -392.467857   19860.415297   
11632.166623   506.447047   17217.736025   -224.503251   -804.390521   20330.932368   
11266.663969   636.120191   19178.669112   -130.047133   -1206.096165   20929.516588   
10391.271426   695.620929   20992.895414   -0.693786   -1540.236650   20915.792444   
9275.415644   769.569644   22652.199336   114.400882   -1856.424662   20202.499511   
8057.750775   823.636813   24026.230703   163.437877   -2136.231258   18666.247076   
6949.965548   870.393420   25164.638482   140.545996   -2380.103454   16347.405413   
6092.407259   912.939225   26178.850730   39.900326   -2582.563430   13375.051758   
5597.698862   945.547115   27120.209187   -97.240831   -2746.304700   9920.351564   
5542.143841   965.329932   27961.561920   -235.417373   -2856.124201   6244.411993   
5939.849088   971.976562   28634.390631   -346.784908   -2909.034714   2620.116682   
6720.727714   944.888226   28988.454406   -406.575989   -2898.937064   -672.742014   
7794.559548   888.711238   28959.269105   -452.347196   -2841.124705   -3464.990428   
8579.872405   643.409517   28308.702607   -484.262299   -2657.213300   -5521.431060   
9979.146022   1031.348752   27890.909695   57.650713   -2419.676378   -7354.550187   
8378.780373   1027.189144   26399.105810   303.023421   -1079.275020   -7902.699609   
729.062257   -1057.168535   6684.331012   1255.891138   -1466.906147   2792.444877   
1864.990632   -776.355207   13434.729831   1655.482985   -1697.086496   10579.331641   
8089.421973   548.417866   16559.972498   1127.158553   -1299.129344   16202.211652   
10086.172477   4.267050   16606.505416   813.210235   -763.809579   18442.275044   
11645.396127   90.641911   18489.268822   663.721714   -292.156984   20336.982983   
11922.837198   -6.321390   20507.704746   497.449501   88.307940   21515.522699   
11523.364720   -1.318815   22967.857973   326.851258   444.453561   22035.307628   
10511.476990   -55.582966   25264.056876   170.339326   750.646852   21516.069462   
9379.214870   -60.574471   27356.751123   65.460686   1003.300940   19982.118096   
8275.540379   -60.259670   29179.912240   64.001690   1209.757935   17449.130795   
7496.955708   -51.776145   30698.853036   117.893926   1377.774556   14076.859955   
7168.099707   -43.251783   31943.936217   228.047847   1499.405671   10181.714091   
7334.580059   -47.171839   32890.320475   326.504353   1599.779227   6008.887088   
8051.462550   -53.699568   33409.246481   375.239670   1647.301661   1882.067679   
9189.989931   -73.618066   33397.672164   368.788977   1621.319154   -1822.003650   
10555.293276   -119.224485   32828.589404   357.261729   1535.916204   -4830.533078   
11528.747157   -268.607316   31671.544978   258.958937   1392.206778   -6984.534104   
12706.867929   191.568991   30582.659635   -371.846821   1200.858743   -8465.670722   
11073.850384   917.569833   28805.637244   -1663.610091   824.809273   -8872.486828   
24437.055042   18089.414966   35796.980820   -14982.310558   -1.531053   -8534.607818   
2265.006994   -374.475304   14374.313145   -912.312699   751.132963   9325.541417   
-157.568579   -1456.173416   6240.945581   -668.033835   851.660844   1545.910512   
2265.006994   -374.475304   14374.313145   -912.312699   751.132963   9325.541417   
9215.426600   1460.465112   18474.125358   -859.289238   404.398538   14931.977499   
11327.262241   1065.197042   18901.848959   -760.759950   79.355357   17116.053800   
12888.407523   1165.805754   20830.136903   -673.758119   -252.197432   19067.966939   
13164.766833   1039.184749   22750.795573   -582.690357   -568.640710   20276.998202   
12698.583630   958.694925   24992.684863   -479.783190   -873.636597   20851.627866   
11550.262118   781.317979   27014.941565   -375.510852   -1157.043015   20443.323385   
10198.379852   620.832663   28808.943252   -290.600344   -1408.088800   19058.568088   
8860.033968   472.031044   30369.721031   -243.110163   -1620.210143   16690.294066   
7907.660994   367.878245   31686.995718   -232.296720   -1792.631660   13478.600620   
7499.031197   314.667191   32806.067974   -241.280868   -1923.534012   9750.789189   
7736.941188   337.031462   33768.637014   -243.488282   -2004.484303   5770.317023   
8622.365059   423.804928   34430.025625   -215.599321   -2028.439629   1867.911862   
10010.586494   545.675561   34641.387693   -141.924084   -1990.241972   -1574.119727   
11711.286147   699.676983   34402.268093   -7.325500   -1881.792957   -4316.408184   
13931.792805   1108.728208   33859.617741   333.374882   -1696.417624   -6085.706755   
15399.715321   1694.453370   32899.426839   887.293166   -1392.316615   -7020.857357   
20364.920036   5112.463808   33497.547509   2458.827839   -1012.268526   -6856.962088   
1864.990632   -776.355207   13434.729831   -1655.482985   1697.086496   10579.331641   
729.062257   -1057.168535   6684.331012   -1255.891138   1466.906147   2792.444877   
1864.990632   -776.355207   13434.729831   -1655.482985   1697.086496   10579.331641   
8089.421973   548.417866   16559.972498   -1127.158553   1299.129344   16202.211652   
10086.172477   4.267050   16606.505416   -813.210235   763.809579   18442.275044   
11645.396127   90.641911   18489.268822   -663.721714   292.156984   20336.982983   
11922.837198   -6.321390   20507.704746   -497.449501   -88.307940   21515.522699   
11523.364720   -1.318815   22967.857973   -326.851258   -444.453561   22035.307628   
10511.476990   -55.582966   25264.056876   -170.339326   -750.646852   21516.069462   
9379.214870   -60.574471   27356.751123   -65.460686   -1003.300940   19982.118096   
8275.540379   -60.259670   29179.912240   -64.001690   -1209.757935   17449.130795   
7496.955708   -51.776145   30698.853036   -117.893926   -1377.774556   14076.859955   
7168.099707   -43.251783   31943.936217   -228.047847   -1499.405671   10181.714091   
7334.580059   -47.171839   32890.320475   -326.504353   -1599.779227   6008.887088   
8051.462550   -53.699568   33409.246481   -375.239670   -1647.301661   1882.067679   
9189.989931   -73.618066   33397.672164   -368.788977   -1621.319154   -1822.003650   
10555.293276   -119.224485   32828.589404   -357.261729   -1535.916204   -4830.533078   
11528.747157   -268.607316   31671.544978   -258.958937   -1392.206778   -6984.534104   
12706.867929   191.568991   30582.659635   371.846821   -1200.858743   -8465.670722   
11073.850384   917.569833   28805.637244   1663.610091   -824.809273   -8872.486828   
-1237.406575   -2044.417943   0.865052   848.076918   -1725.382574   496.447254   
2222.763120   -414.732532   9065.162852   1691.010798   -1446.191123   7448.878928   
4992.011452   -434.887338   12029.352209   1480.523420   -1517.285069   11234.240880   
8826.433177   -84.440465   14641.072103   1259.932756   -1259.234257   15821.259139   
11225.815063   -198.924099   16564.682672   1076.171765   -901.580112   18745.061718   
12681.246062   -139.477342   19501.748578   915.778529   -469.507411   21334.176568   
12773.320274   -220.956977   22778.212162   719.271638   -19.462488   22759.537481   
12093.058205   -217.979155   26423.739748   491.799122   396.604695   22948.553191   
10726.749957   -310.520560   29750.702142   327.739493   740.354659   21439.452141   
9648.545470   -296.907989   32621.504414   234.262559   977.171145   18652.665847   
8814.234486   -301.819086   34983.335576   305.970692   1176.989596   14860.130047   
8545.252778   -340.215053   36686.442476   368.488822   1394.353783   10193.526027   
9106.094412   -341.435211   37648.801035   395.991657   1506.980758   5202.509340   
10298.179887   -344.691000   37793.685019   377.612058   1527.997281   427.429596   
11950.903822   -346.881404   37059.173478   259.021354   1444.063660   -3696.740981   
13654.941030   -401.902120   35507.982002   178.355506   1253.003702   -6749.505951   
14557.500124   -628.046295   33283.670060   36.256213   1000.994967   -8583.608718   
15469.079410   -169.031645   31327.366664   -624.203446   750.040254   -9563.716347   
13335.124842   629.574713   28744.473777   -2044.718587   363.923360   -9404.368878   
27456.788576   19127.468566   36233.263922   -16019.150165   0.723309   -8887.547109   
2042.775188   -430.309066   9193.229005   -1085.697173   921.469487   7020.059850   
-1077.343592   -1868.934775   425.745964   -1036.884230   902.915142   598.168670   
2042.775188   -430.309066   9193.229005   -1085.697173   921.469487   7020.059850   
5619.200218   73.851008   13097.957928   -1097.187417   794.891785   10648.705215   
9700.391332   656.590070   16237.215731   -1034.342907   601.737018   14884.533866   
12229.058783   688.933541   18520.964421   -972.264482   331.334655   17580.846387   
13759.220320   794.763671   21537.911029   -907.484651   6.235822   19946.561367   
13905.552220   695.434642   24700.618948   -817.591258   -355.929518   21250.302586   
13151.361411   583.173831   28035.946498   -699.343622   -725.783639   21454.608415   
11575.454179   300.739958   30939.532977   -575.695141   -1070.999972   20108.934263   
10208.752229   98.456408   33379.178980   -475.123624   -1365.253082   17571.639621   
9156.273697   -56.340735   35459.557536   -409.772819   -1592.823685   14060.325616   
8897.036708   -100.093645   37135.063241   -357.716974   -1745.355977   9713.127301   
9578.849774   -37.533924   38189.049961   -287.587825   -1821.869083   5080.406848   
10974.939494   82.379099   38540.492408   -182.951928   -1812.686644   697.357824   
12913.168668   272.205379   38160.531242   -34.735036   -1713.568751   -3091.789350   
14908.233969   408.712665   36956.738346   161.729019   -1533.563262   -5857.674110   
17271.145873   866.657592   35552.370601   577.134023   -1300.234150   -7562.320387   
18333.515273   1376.353249   33614.213781   1211.632230   -1003.480353   -8252.833351   
23576.339057   5313.532402   34116.451859   2930.709104   -716.009356   -8320.632314   
2222.763120   -414.732532   9065.162852   -1691.010798   1446.191123   7448.878928   
-1237.406575   -2044.417943   0.865052   -848.076918   1725.382574   496.447254   
2222.763120   -414.732532   9065.162852   -1691.010798   1446.191123   7448.878928   
4992.011452   -434.887338   12029.352209   -1480.523420   1517.285069   11234.240880   
8826.433177   -84.440465   14641.072103   -1259.932756   1259.234257   15821.259139   
11225.815063   -198.924099   16564.682672   -1076.171765   901.580112   18745.061718   
12681.246062   -139.477342   19501.748578   -915.778529   469.507411   21334.176568   
12773.320274   -220.956977   22778.212162   -719.271638   19.462488   22759.537481   
12093.058205   -217.979155   26423.739748   -491.799122   -396.604695   22948.553191   
10726.749957   -310.520560   29750.702142   -327.739493   -740.354659   21439.452141   