<VTKFile type="UnstructuredGrid"  version="0.1"   > 
<UnstructuredGrid> 
<Piece  NumberOfPoints="  289" NumberOfCells=" 256"> 
<Points> 
<DataArray  type="Float64"  NumberOfComponents="3"  format="ascii" > 
0.000000 0.000000 0.0 
0.250000 0.000000 0.0 
0.500000 0.000000 0.0 
0.750000 0.000000 0.0 
1.000000 0.000000 0.0 
1.250000 0.000000 0.0 
1.500000 0.000000 0.0 
1.750000 0.000000 0.0 
2.000000 0.000000 0.0 
2.250000 0.000000 0.0 
2.500000 0.000000 0.0 
2.750000 0.000000 0.0 
3.000000 0.000000 0.0 
3.250000 0.000000 0.0 
3.500000 0.000000 0.0 
3.750000 0.000000 0.0 
4.000000 0.000000 0.0 
0.000000 0.250000 0.0 
0.250000 0.250000 0.0 
0.500000 0.250000 0.0 
0.750000 0.250000 0.0 
1.000000 0.250000 0.0 
1.250000 0.250000 0.0 
1.500000 0.250000 0.0 
1.750000 0.250000 0.0 
2.000000 0.250000 0.0 
2.250000 0.250000 0.0 
2.500000 0.250000 0.0 
2.750000 0.250000 0.0 
3.000000 0.250000 0.0 
3.250000 0.250000 0.0 
3.500000 0.250000 0.0 
3.750000 0.250000 0.0 
4.000000 0.250000 0.0 
0.000000 0.500000 0.0 
0.250000 0.500000 0.0 
0.500000 0.500000 0.0 
0.750000 0.500000 0.0 
1.000000 0.500000 0.0 
1.250000 0.500000 0.0 
1.500000 0.500000 0.0 
1.750000 0.500000 0.0 
2.000000 0.500000 0.0 
2.250000 0.500000 0.0 
2.500000 0.500000 0.0 
2.750000 0.500000 0.0 
3.000000 0.500000 0.0 
3.250000 0.500000 0.0 
3.500000 0.500000 0.0 
3.750000 0.500000 0.0 
4.000000 0.500000 0.0 
0.000000 0.750000 0.0 
0.250000 0.750000 0.0 
0.500000 0.750000 0.0 
0.750000 0.750000 0.0 
1.000000 0.750000 0.0 
1.250000 0.750000 0.0 
1.500000 0.750000 0.0 
1.750000 0.750000 0.0 
2.000000 0.750000 0.0 
2.250000 0.750000 0.0 
2.500000 0.750000 0.0 
2.750000 0.750000 0.0 
3.000000 0.750000 0.0 
3.250000 0.750000 0.0 
3.500000 0.750000 0.0 
3.750000 0.750000 0.0 
4.000000 0.750000 0.0 
0.000000 1.000000 0.0 
0.250000 1.000000 0.0 
0.500000 1.000000 0.0 
0.750000 1.000000 0.0 
1.000000 1.000000 0.0 
1.250000 1.000000 0.0 
1.500000 1.000000 0.0 
1.750000 1.000000 0.0 
2.000000 1.000000 0.0 
2.250000 1.000000 0.0 
2.500000 1.000000 0.0 
2.750000 1.000000 0.0 
3.000000 1.000000 0.0 
3.250000 1.000000 0.0 
3.500000 1.000000 0.0 
3.750000 1.000000 0.0 
4.000000 1.000000 0.0 
0.000000 1.250000 0.0 
0.250000 1.250000 0.0 
0.500000 1.250000 0.0 
0.750000 1.250000 0.0 
1.000000 1.250000 0.0 
1.250000 1.250000 0.0 
1.500000 1.250000 0.0 
1.750000 1.250000 0.0 
2.000000 1.250000 0.0 
2.250000 1.250000 0.0 
2.500000 1.250000 0.0 
2.750000 1.250000 0.0 
3.000000 1.250000 0.0 
3.250000 1.250000 0.0 
3.500000 1.250000 0.0 
3.750000 1.250000 0.0 
4.000000 1.250000 0.0 
0.000000 1.500000 0.0 
0.250000 1.500000 0.0 
0.500000 1.500000 0.0 
0.750000 1.500000 0.0 
1.000000 1.500000 0.0 
1.250000 1.500000 0.0 
1.500000 1.500000 0.0 
1.750000 1.500000 0.0 
2.000000 1.500000 0.0 
2.250000 1.500000 0.0 
2.500000 1.500000 0.0 
2.750000 1.500000 0.0 
3.000000 1.500000 0.0 
3.250000 1.500000 0.0 
3.500000 1.500000 0.0 
3.750000 1.500000 0.0 
4.000000 1.500000 0.0 
0.000000 1.750000 0.0 
0.250000 1.750000 0.0 
0.500000 1.750000 0.0 
0.750000 1.750000 0.0 
1.000000 1.750000 0.0 
1.250000 1.750000 0.0 
1.500000 1.750000 0.0 
1.750000 1.750000 0.0 
2.000000 1.750000 0.0 
2.250000 1.750000 0.0 
2.500000 1.750000 0.0 
2.750000 1.750000 0.0 
3.000000 1.750000 0.0 
3.250000 1.750000 0.0 
3.500000 1.750000 0.0 
3.750000 1.750000 0.0 
4.000000 1.750000 0.0 
0.000000 2.000000 0.0 
0.250000 2.000000 0.0 
0.500000 2.000000 0.0 
0.750000 2.000000 0.0 
1.000000 2.000000 0.0 
1.250000 2.000000 0.0 
1.500000 2.000000 0.0 
1.750000 2.000000 0.0 
2.000000 2.000000 0.0 
2.250000 2.000000 0.0 
2.500000 2.000000 0.0 
2.750000 2.000000 0.0 
3.000000 2.000000 0.0 
3.250000 2.000000 0.0 
3.500000 2.000000 0.0 
3.750000 2.000000 0.0 
4.000000 2.000000 0.0 
0.000000 2.250000 0.0 
0.250000 2.250000 0.0 
0.500000 2.250000 0.0 
0.750000 2.250000 0.0 
1.000000 2.250000 0.0 
1.250000 2.250000 0.0 
1.500000 2.250000 0.0 
1.750000 2.250000 0.0 
2.000000 2.250000 0.0 
2.250000 2.250000 0.0 
2.500000 2.250000 0.0 
2.750000 2.250000 0.0 
3.000000 2.250000 0.0 
3.250000 2.250000 0.0 
3.500000 2.250000 0.0 
3.750000 2.250000 0.0 
4.000000 2.250000 0.0 
0.000000 2.500000 0.0 
0.250000 2.500000 0.0 
0.500000 2.500000 0.0 
0.750000 2.500000 0.0 
1.000000 2.500000 0.0 
1.250000 2.500000 0.0 
1.500000 2.500000 0.0 
1.750000 2.500000 0.0 
2.000000 2.500000 0.0 
2.250000 2.500000 0.0 
2.500000 2.500000 0.0 
2.750000 2.500000 0.0 
3.000000 2.500000 0.0 
3.250000 2.500000 0.0 
3.500000 2.500000 0.0 
3.750000 2.500000 0.0 
4.000000 2.500000 0.0 
0.000000 2.750000 0.0 
0.250000 2.750000 0.0 
0.500000 2.750000 0.0 
0.750000 2.750000 0.0 
1.000000 2.750000 0.0 
1.250000 2.750000 0.0 
1.500000 2.750000 0.0 
1.750000 2.750000 0.0 
2.000000 2.750000 0.0 
2.250000 2.750000 0.0 
2.500000 2.750000 0.0 
2.750000 2.750000 0.0 
3.000000 2.750000 0.0 
3.250000 2.750000 0.0 
3.500000 2.750000 0.0 
3.750000 2.750000 0.0 
4.000000 2.750000 0.0 
0.000000 3.000000 0.0 
0.250000 3.000000 0.0 
0.500000 3.000000 0.0 
0.750000 3.000000 0.0 
1.000000 3.000000 0.0 
1.250000 3.000000 0.0 
1.500000 3.000000 0.0 
1.750000 3.000000 0.0 
2.000000 3.000000 0.0 
2.250000 3.000000 0.0 
2.500000 3.000000 0.0 
2.750000 3.000000 0.0 
3.000000 3.000000 0.0 
3.250000 3.000000 0.0 
3.500000 3.000000 0.0 
3.750000 3.000000 0.0 
4.000000 3.000000 0.0 
0.000000 3.250000 0.0 
0.250000 3.250000 0.0 
0.500000 3.250000 0.0 
0.750000 3.250000 0.0 
1.000000 3.250000 0.0 
1.250000 3.250000 0.0 
1.500000 3.250000 0.0 
1.750000 3.250000 0.0 
2.000000 3.250000 0.0 
2.250000 3.250000 0.0 
2.500000 3.250000 0.0 
2.750000 3.250000 0.0 
3.000000 3.250000 0.0 
3.250000 3.250000 0.0 
3.500000 3.250000 0.0 
3.750000 3.250000 0.0 
4.000000 3.250000 0.0 
0.000000 3.500000 0.0 
0.250000 3.500000 0.0 
0.500000 3.500000 0.0 
0.750000 3.500000 0.0 
1.000000 3.500000 0.0 
1.250000 3.500000 0.0 
1.500000 3.500000 0.0 
1.750000 3.500000 0.0 
2.000000 3.500000 0.0 
2.250000 3.500000 0.0 
2.500000 3.500000 0.0 
2.750000 3.500000 0.0 
3.000000 3.500000 0.0 
3.250000 3.500000 0.0 
3.500000 3.500000 0.0 
3.750000 3.500000 0.0 
4.000000 3.500000 0.0 
0.000000 3.750000 0.0 
0.250000 3.750000 0.0 
0.500000 3.750000 0.0 
0.750000 3.750000 0.0 
1.000000 3.750000 0.0 
1.250000 3.750000 0.0 
1.500000 3.750000 0.0 
1.750000 3.750000 0.0 
2.000000 3.750000 0.0 
2.250000 3.750000 0.0 
2.500000 3.750000 0.0 
2.750000 3.750000 0.0 
3.000000 3.750000 0.0 
3.250000 3.750000 0.0 
3.500000 3.750000 0.0 
3.750000 3.750000 0.0 
4.000000 3.750000 0.0 
0.000000 4.000000 0.0 
0.250000 4.000000 0.0 
0.500000 4.000000 0.0 
0.750000 4.000000 0.0 
1.000000 4.000000 0.0 
1.250000 4.000000 0.0 
1.500000 4.000000 0.0 
1.750000 4.000000 0.0 
2.000000 4.000000 0.0 
2.250000 4.000000 0.0 
2.500000 4.000000 0.0 
2.750000 4.000000 0.0 
3.000000 4.000000 0.0 
3.250000 4.000000 0.0 
3.500000 4.000000 0.0 
3.750000 4.000000 0.0 
4.000000 4.000000 0.0 
</DataArray> 
</Points> 
<Cells> 
<DataArray  type="Int32"  Name="connectivity"  format="ascii"> 
0 1 18 17 
1 2 19 18 
2 3 20 19 
3 4 21 20 
4 5 22 21 
5 6 23 22 
6 7 24 23 
7 8 25 24 
8 9 26 25 
9 10 27 26 
10 11 28 27 
11 12 29 28 
12 13 30 29 
13 14 31 30 
14 15 32 31 
15 16 33 32 
17 18 35 34 
18 19 36 35 
19 20 37 36 
20 21 38 37 
21 22 39 38 
22 23 40 39 
23 24 41 40 
24 25 42 41 
25 26 43 42 
26 27 44 43 
27 28 45 44 
28 29 46 45 
29 30 47 46 
30 31 48 47 
31 32 49 48 
32 33 50 49 
34 35 52 51 
35 36 53 52 
36 37 54 53 
37 38 55 54 
38 39 56 55 
39 40 57 56 
40 41 58 57 
41 42 59 58 
42 43 60 59 
43 44 61 60 
44 45 62 61 
45 46 63 62 
46 47 64 63 
47 48 65 64 
48 49 66 65 
49 50 67 66 
51 52 69 68 
52 53 70 69 
53 54 71 70 
54 55 72 71 
55 56 73 72 
56 57 74 73 
57 58 75 74 
58 59 76 75 
59 60 77 76 
60 61 78 77 
61 62 79 78 
62 63 80 79 
63 64 81 80 
64 65 82 81 
65 66 83 82 
66 67 84 83 
68 69 86 85 
69 70 87 86 
70 71 88 87 
71 72 89 88 
72 73 90 89 
73 74 91 90 
74 75 92 91 
75 76 93 92 
76 77 94 93 
77 78 95 94 
78 79 96 95 
79 80 97 96 
80 81 98 97 
81 82 99 98 
82 83 100 99 
83 84 101 100 
85 86 103 102 
86 87 104 103 
87 88 105 104 
88 89 106 105 
89 90 107 106 
90 91 108 107 
91 92 109 108 
92 93 110 109 
93 94 111 110 
94 95 112 111 
95 96 113 112 
96 97 114 113 
97 98 115 114 
98 99 116 115 
99 100 117 116 
100 101 118 117 
102 103 120 119 
103 104 121 120 
104 105 122 121 
105 106 123 122 
106 107 124 123 
107 108 125 124 
108 109 126 125 
109 110 127 126 
110 111 128 127 
111 112 129 128 
112 113 130 129 
113 114 131 130 
114 115 132 131 
115 116 133 132 
116 117 134 133 
117 118 135 134 
119 120 137 136 
120 121 138 137 
121 122 139 138 
122 123 140 139 
123 124 141 140 
124 125 142 141 
125 126 143 142 
126 127 144 143 
127 128 145 144 
128 129 146 145 
129 130 147 146 
130 131 148 147 
131 132 149 148 
132 133 150 149 
133 134 151 150 
134 135 152 151 
136 137 154 153 
137 138 155 154 
138 139 156 155 
139 140 157 156 
140 141 158 157 
141 142 159 158 
142 143 160 159 
143 144 161 160 
144 145 162 161 
145 146 163 162 
146 147 164 163 
147 148 165 164 
148 149 166 165 
149 150 167 166 
150 151 168 167 
151 152 169 168 
153 154 171 170 
154 155 172 171 
155 156 173 172 
156 157 174 173 
157 158 175 174 
158 159 176 175 
159 160 177 176 
160 161 178 177 
161 162 179 178 
162 163 180 179 
163 164 181 180 
164 165 182 181 
165 166 183 182 
166 167 184 183 
167 168 185 184 
168 169 186 185 
170 171 188 187 
171 172 189 188 
172 173 190 189 
173 174 191 190 
174 175 192 191 
175 176 193 192 
176 177 194 193 
177 178 195 194 
178 179 196 195 
179 180 197 196 
180 181 198 197 
181 182 199 198 
182 183 200 199 
183 184 201 200 
184 185 202 201 
185 186 203 202 
187 188 205 204 
188 189 206 205 
189 190 207 206 
190 191 208 207 
191 192 209 208 
192 193 210 209 
193 194 211 210 
194 195 212 211 
195 196 213 212 
196 197 214 213 
197 198 215 214 
198 199 216 215 
199 200 217 216 
200 201 218 217 
201 202 219 218 
202 203 220 219 
204 205 222 221 
205 206 223 222 
206 207 224 223 
207 208 225 224 
208 209 226 225 
209 210 227 226 
210 211 228 227 
211 212 229 228 
212 213 230 229 
213 214 231 230 
214 215 232 231 
215 216 233 232 
216 217 234 233 
217 218 235 234 
218 219 236 235 
219 220 237 236 
221 222 239 238 
222 223 240 239 
223 224 241 240 
224 225 242 241 
225 226 243 242 
226 227 244 243 
227 228 245 244 
228 229 246 245 
229 230 247 246 
230 231 248 247 
231 232 249 248 
232 233 250 249 
233 234 251 250 
234 235 252 251 
235 236 253 252 
236 237 254 253 
238 239 256 255 
239 240 257 256 
240 241 258 257 
241 242 259 258 
242 243 260 259 
243 244 261 260 
244 245 262 261 
245 246 263 262 
246 247 264 263 
247 248 265 264 
248 249 266 265 
249 250 267 266 
250 251 268 267 
251 252 269 268 
252 253 270 269 
253 254 271 270 
255 256 273 272 
256 257 274 273 
257 258 275 274 
258 259 276 275 
259 260 277 276 
260 261 278 277 
261 262 279 278 
262 263 280 279 
263 264 281 280 
264 265 282 281 
265 266 283 282 
266 267 284 283 
267 268 285 284 
268 269 286 285 
269 270 287 286 
270 271 288 287 
</DataArray> 
<DataArray  type="Int32"  Name="offsets"  format="ascii"> 
4 
8 
12 
16 
20 
24 
28 
32 
36 
40 
44 
48 
52 
56 
60 
64 
68 
72 
76 
80 
84 
88 
92 
96 
100 
104 
108 
112 
116 
120 
124 
128 
132 
136 
140 
144 
148 
152 
156 
160 
164 
168 
172 
176 
180 
184 
188 
192 
196 
200 
204 
208 
212 
216 
220 
224 
228 
232 
236 
240 
244 
248 
252 
256 
260 
264 
268 
272 
276 
280 
284 
288 
292 
296 
300 
304 
308 
312 
316 
320 
324 
328 
332 
336 
340 
344 
348 
352 
356 
360 
364 
368 
372 
376 
380 
384 
388 
392 
396 
400 
404 
408 
412 
416 
420 
424 
428 
432 
436 
440 
444 
448 
452 
456 
460 
464 
468 
472 
476 
480 
484 
488 
492 
496 
500 
504 
508 
512 
516 
520 
524 
528 
532 
536 
540 
544 
548 
552 
556 
560 
564 
568 
572 
576 
580 
584 
588 
592 
596 
600 
604 
608 
612 
616 
620 
624 
628 
632 
636 
640 
644 
648 
652 
656 
660 
664 
668 
672 
676 
680 
684 
688 
692 
696 
700 
704 
708 
712 
716 
720 
724 
728 
732 
736 
740 
744 
748 
752 
756 
760 
764 
768 
772 
776 
780 
784 
788 
792 
796 
800 
804 
808 
812 
816 
820 
824 
828 
832 
836 
840 
844 
848 
852 
856 
860 
864 
868 
872 
876 
880 
884 
888 
892 
896 
900 
904 
908 
912 
916 
920 
924 
928 
932 
936 
940 
944 
948 
952 
956 
960 
964 
968 
972 
976 
980 
984 
988 
992 
996 
1000 
1004 
1008 
1012 
1016 
1020 
1024 
</DataArray> 
<DataArray  type="UInt8"  Name="types"  format="ascii"> 
9 
9 
9 
9 
9 
9 
9 
9 
9 
9 
9 
9 
9 
9 
9 
9 
9 
9 
9 
9 
9 
9 
9 
9 
9 
9 
9 
9 
9 
9 
9 
9 
9 
9 
9 
9 
9 
9 
9 
9 
9 
9 
9 
9 
9 
9 
9 
9 
9 
9 
9 
9 
9 
9 
9 
9 
9 
9 
9 
9 
9 
9 
9 
9 
9 
9 
9 
9 
9 
9 
9 
9 
9 
9 
9 
9 
9 
9 
9 
9 
9 
9 
9 
9 
9 
9 
9 
9 
9 
9 
9 
9 
9 
9 
9 
9 
9 
9 
9 
9 
9 
9 
9 
9 
9 
9 
9 
9 
9 
9 
9 
9 
9 
9 
9 
9 
9 
9 
9 
9 
9 
9 
9 
9 
9 
9 
9 
9 
9 
9 
9 
9 
9 
9 
9 
9 
9 
9 
9 
9 
9 
9 
9 
9 
9 
9 
9 
9 
9 
9 
9 
9 
9 
9 
9 
9 
9 
9 
9 
9 
9 
9 
9 
9 
9 
9 
9 
9 
9 
9 
9 
9 
9 
9 
9 
9 
9 
9 
9 
9 
9 
9 
9 
9 
9 
9 
9 
9 
9 
9 
9 
9 
9 
9 
9 
9 
9 
9 
9 
9 
9 
9 
9 
9 
9 
9 
9 
9 
9 
9 
9 
9 
9 
9 
9 
9 
9 
9 
9 
9 
9 
9 
9 
9 
9 
9 
9 
9 
9 
9 
9 
9 
9 
9 
9 
9 
9 
9 
9 
9 
9 
9 
9 
9 
9 
9 
9 
9 
9 
9 
9 
9 
9 
9 
9 
9 
</DataArray> 
</Cells> 
<PointData  Vectors="sigma"> 
<DataArray  type="Float64"  Name="sigma" NumberOfComponents="3" format="ascii"> 
-1.25803   22.7962   0   
-3.49655   15.8787   0.902133   
-3.10947   23.0845   0.506819   
1.24962   28.8256   -0.469454   
-6.63654   20.2388   2.47422   
-0.115989   20.2687   0.547776   
4.50971   65.1521   -6.62464   
1708.1   26557.3   285.391   
4113.17   15951.7   -235.376   
3721.22   12724.9   111.046   
2867.17   11036.8   -56.6453   
2164.13   10258.8   28.7378   
1430.42   9542.73   -14.6097   
900.864   8995.62   7.43473   
431.747   8327.03   -4.00917   
117.669   7417.7   1.79438   
9.26214   6250.47   -7.52107   
-1.13805   23.619   0.430355   
-1.80568   23.0178   -0.238509   
-2.59025   23.7704   0.0557897   
-1.59646   23.2643   -0.651261   
-2.96026   25.141   1.02868   
-0.534379   33.4452   -0.441819   
-2.08733   30.1594   -1.80776   
1625.07   19885.6   -2282.6   
3564.65   15430.4   -252.506   
3258.01   12393.7   630.747   
2532.05   11167.9   787.937   
1964.46   10227.6   676.754   
1286.65   9642.48   616.965   
846.3   9035.63   481.843   
375.212   8379.48   384.079   
123.135   7540.9   224.83   
-40.6564   6353.44   12.8765   
-8.23083   19.9483   3.20981   
-1.89255   23.0775   -0.373415   
-5.97146   20.5142   2.87235   
0.630173   26.318   -2.37389   
-10.3616   22.7297   5.22885   
0.908072   25.5776   -2.59086   
1.22844   15.6709   -4.88862   
1616.23   13692.6   -2249.28   
2569.48   13134.2   -319.765   
2049.23   12098   1190.22   
1790.86   11093.5   1223.9   
1363.91   10384.8   1261.99   
1000.57   9756.85   1047.34   
609.896   9194.67   923.581   
318.31   8569.05   679.434   
84.3086   7793.93   418.236   
13.3357   6770.56   -18.8438   
0.614495   25.4711   0.250474   
-2.93312   22.108   -0.446571   
-2.13182   25.1697   0.0133414   
-3.42579   21.3087   -0.241257   
-6.636   26.1532   4.65268   
0.0729149   12.5705   -1.56652   
2.32373   9.46931   -4.28336   
1411.27   8084.02   -761.701   
1211.62   11597.7   456.256   
784.459   11498.9   1316.78   
848.63   11134.2   1446.69   
716.259   10435.8   1511.82   
563.966   9950.51   1342.02   
367.426   9389.84   1186.91   
184.086   8842.6   900.891   
54.7097   8192.15   551.626   
-7.17658   7367.5   -11.7279   
-5.59999   19.6329   -2.30726   
-2.65994   21.966   1.11465   
-5.12949   18.385   0.515744   
-2.22112   25.8994   5.49518   
-2.95962   15.9047   0.237674   
1.29467   6.46994   -2.59068   
1663.19   5976.93   -3061.8   
-231.975   8963.14   797.914   
-49.014   10811.5   821.74   
-156.195   11308.5   1206.89   
131.903   10869.7   1397.17   
97.7564   10555   1556.95   
197.719   10046.4   1436.93   
84.8573   9630   1309.11   
92.5983   9167.11   1009.25   
5.05353   8647.3   615.178   
40.3631   8102.55   -11.3375   
-2.17955   25.5962   2.21291   
-1.0721   26.0547   -0.441388   
-0.795006   23.8125   -0.281181   
-3.3791   13.3573   1.9136   
-1.16022   1.98849   -0.734037   
2084.69   3376.99   -2453.62   
-822.064   8762.71   -1331.18   
-1286.6   12395.3   247.815   
-682.481   10763.3   868.325   
-641.785   10859   965.924   
-406.015   10753.3   1326.11   
-301.39   10467.4   1404.5   
-138.341   10173.4   1432.22   
-96.7759   9823.37   1279.16   
-28.5646   9495.36   1031.37   
-14.3227   9163.07   620.056   
11.0997   8850.01   -0.201442   
-8.95218   8.59135   0.356791   
-5.65399   7.27137   0.457694   
-2.03887   6.0414   0.915608   
-0.953845   0.480446   0.336462   
707.962   1556.69   -1044.35   
-1312.21   6136.46   -2016.93   
-2185.29   9886.33   -1232.98   
-1854.6   9687.09   -223.992   
-1383.58   10605.5   423.17   
-985.939   10542.5   843.108   
-796.499   10529.9   1076.57   
-534.654   10404   1260.35   
-385.074   10208.9   1279.16   
-211.454   10009.4   1194.26   
-117.609   9809.65   960.294   
-30.338   9645.67   576.586   
-8.21035   9570.04   -0.560248   
-5140.15   -488.497   -75.7365   
-3200.92   -80.3   170.065   
-1637.81   150.096   -442.657   
-501.357   1425.98   -1186.6   
-1403.72   4002.93   -1947.8   
-2352.86   7135.39   -2082.54   
-1958.18   8297.43   -1342.69   
-1826.39   9916.46   -604.21   
-1494.44   9931.47   73.2477   
-1274.74   10226.1   505.774   
-919.158   10288.4   852.941   
-733.667   10284.6   1022.71   
-470.441   10228.6   1104.56   
-317.539   10146.6   1033.67   
-140.383   10092.5   848.45   
-46.5341   10099.9   507.324   
12.7212   10225.3   4.18674   
-1045.14   -49.5819   96.5014   
-1073.77   191.677   -778.21   
-628.236   1539.08   -1584   
-702.903   3681.7   -2437.95   
-1320.03   5182.06   -2059.22   
-1460.8   6237.08   -2022.08   
-1718.48   8014.46   -1393.89   
-1697.2   8548.11   -817.432   
-1478.13   9500.91   -177.732   
-1210.98   9793.07   249.762   
-1009.72   10039.1   591.025   
-738.43   10141.2   796.034   
-543.513   10208.7   888.677   
-323.078   10256.5   859.298   
-173.673   10332.5   705.031   
-45.6159   10480.7   421.406   
-9.6066   10766.3   -3.00133   
-66.4843   726.364   -62.9215   
-32.8674   1202.85   -840.664   
-220.35   2193.74   -1554.22   
-610.849   3492.92   -1703.1   
-723.925   4808.62   -1814.1   
-1059.51   6205.13   -1619.59   
-1259   7217.38   -1331.45   
-1242.04   8430.21   -830.233   
-1265.1   8927.84   -388.173   
-1107.81   9445.78   52.3579   
-916.941   9753.15   362.326   
-719.298   9992.32   578.977   
-510.603   10165.2   681.612   
-326.449   10332.4   675.84   
-160.584   10525.7   561.08   
-46.2828   10800   333.717   
3.54455   11208.4   3.32041   
586.552   1565.34   45.9728   
465.656   1790.65   -706.764   
232.655   2615.06   -1216.14   
-13.2812   3748.69   -1593.05   
-427.826   4895.68   -1543.95   
-635.011   5865.37   -1449.2   
-829.977   7006.66   -1165.44   
-1019.69   7724.27   -827.107   
-960.984   8557.86   -416.53   
-910.037   9076.74   -92.2128   
-782.848   9509.77   197.444   
-625.044   9830.16   389.179   
-456.539   10113.5   497.248   
-288.848   10378.7   507.329   
-146.306   10676.8   424.286   
-40.9623   11045.8   251.688   
-2.55061   11540.3   -2.05523   
866.611   2198.78   -30.9537   
799.821   2456.56   -534.096   
585.481   3021.61   -973.533   
240.12   3822.87   -1150.14   
15.0702   4739.07   -1256.07   
-279.929   5789.75   -1167.23   
-515.589   6630.37   -989.342   
-598.787   7569.3   -721.659   
-719.518   8199.94   -453.02   
-689.17   8805.78   -155.14   
-622.529   9276.99   71.4983   
-508.962   9691.37   246.923   
-377.566   10051   341.8   
-242.387   10407.3   362.922   
-121.29   10786.1   306.686   
-33.9597   11231.3   180.794   
1.53174   11782.7   1.43961   
1066.03   2680.81   18.5085   
991.464   2814.34   -393.955   
807.401   3299.49   -703.461   
589.773   3998.66   -938.227   
270.002   4832.26   -986.95   
17.6565   5611.76   -938.759   
-187.084   6501.74   -807.561   
-394.635   7210.69   -617.14   
-449.671   7961.24   -382.704   
-491.468   8560.3   -185.779   
-459.105   9100.2   4.8834   
-391.465   9562.85   139.055   
-294.869   9997.51   223.98   
-191.203   10418.1   245.748   
-96.0955   10864   210.377   
-26.6733   11363   123.401   
-1.08905   11947.8   -0.946616   
1182.85   3021.02   -6.55566   
1140.35   3180.28   -275.07   
984.448   3538.44   -505.476   
744.559   4102.28   -636.915   
507.724   4768.64   -698.789   
256.711   5583.67   -690.914   
24.4516   6317.19   -596.418   
-125.533   7108.02   -469.838   
-263.258   7765.32   -329.982   
-315.565   8397.11   -163.825   
-322.46   8952.08   -34.0428   
-284.86   9468.34   73.0965   
-220.768   9946.98   135.257   
-144.826   10422.8   157.093   
-72.3222   10914.9   135.73   
-20.03   11451.4   78.9131   
0.936486   12055.6   0.66926   
1294.9   3259.07   -6.82417   
1220.85   3347.63   -173.043   
1093.52   3692.2   -321.639   
889.671   4193   -423.187   
661.882   4850.14   -478.567   
417.819   5506.58   -450.111   
198.144   6257.24   -411.361   
18.2228   6942.68   -322.403   
-113.869   7640.04   -216.551   
-186.564   8268.9   -127.465   
-217.196   8855.61   -35.6768   
-202.422   9394.74   30.8512   
-163.492   9912.29   75.4524   
-107.273   10421.3   90.5893   
-54.8685   10946.5   79.2777   
-14.4028   11507.6   46.0197   
-1.07446   12119.6   -0.58401   
1288.13   3377.66   16.8354   
1277.17   3493.06   -83.1196   
1142.55   3785.35   -152.335   
979.279   4250.64   -207.087   
737.815   4823.54   -219.497   
510.431   5501.96   -228.042   
310.101   6192.98   -196.709   
103.73   6897.38   -162.91   
-10.3718   7567.92   -116.526   
-112.901   8200.86   -67.2971   
-146.901   8795.09   -22.989   
-154.402   9352.8   10.519   
-124.243   9889.47   33.0875   
-86.1185   10419.6   40.7936   
-41.5329   10963.6   36.4367   
-11.6745   11537.5   20.8887   
0.846405   12153.6   0.423479   
1363.16   3460.1   1.36643e-10   
1285.74   3498.64   10.0678   
1175.53   3827.49   -12.6945   
986.799   4251.13   10.3699   
786.869   4880.56   -33.2377   
542.852   5477.19   15.013   
334.504   6184.93   -16.7099   
146.911   6861.3   -1.66238   
8.69417   7537   13.3109   
-82.9561   8173.7   -5.78261   
-127.009   8777.79   4.1016   
-135.304   9336.56   -2.62563   
-113.076   9883.06   1.57111   
-76.8537   10418.7   -0.613228   
-38.9927   10967.5   -0.419407   
-9.6674   11549.3   1.22831   
-3.6022   12161.7   -0.515767   
</DataArray> 
<DataArray  type="Float64"  Name="U" NumberOfComponents="3" format="ascii"> 
0.000000000000   0.000000000000   0.0
-0.022427909605   0.000000000000   0.0
-0.045105138637   0.000000000000   0.0
-0.065967305635   0.000000000000   0.0
-0.092345820538   0.000000000000   0.0
-0.115160142163   0.000000000000   0.0
-0.141153670891   0.000000000000   0.0
-0.171323712011   0.000000000000   0.0
-0.177373506283   0.000000000000   0.0
-0.178304427060   0.000000000000   0.0
-0.178762324799   0.000000000000   0.0
-0.180510173912   0.000000000000   0.0
-0.183428257315   0.000000000000   0.0
-0.187504369402   0.000000000000   0.0
-0.192366207725   0.000000000000   0.0
-0.197622138043   0.000000000000   0.0
-0.202666852059   0.000000000000   0.0
0.000000000000   0.058157921983   0.0
-0.022642330266   0.058654364623   0.0
-0.045368239192   0.059037198345   0.0
-0.068285506251   0.061270726892   0.0
-0.091905896780   0.066342477257   0.0
-0.118263077057   0.074444816726   0.0
-0.146286423440   0.073185247307   0.0
-0.166424600274   0.055994984356   0.0
-0.171899981670   0.036455263658   0.0
-0.173661872425   0.028981522216   0.0
-0.175133349402   0.025592471934   0.0
-0.177559079945   0.024064187079   0.0
-0.180931065990   0.022897395392   0.0
-0.185302906275   0.021873415947   0.0
-0.190339258158   0.020524357766   0.0
-0.195698709636   0.018593623410   0.0
-0.200847723019   0.015672090881   0.0
0.000000000000   0.117305469984   0.0
-0.024513249335   0.119535264920   0.0
-0.046844935645   0.119076672845   0.0
-0.071824058165   0.120994881991   0.0
-0.101782314338   0.131813414632   0.0
-0.135290141323   0.161211414387   0.0
-0.144925037050   0.130448609208   0.0
-0.153300494834   0.095704266662   0.0
-0.157572446589   0.070309165126   0.0
-0.161273728032   0.057414512576   0.0
-0.165173161685   0.051917645212   0.0
-0.169241678735   0.048475230951   0.0
-0.173852311386   0.046318756954   0.0
-0.178946314210   0.044068122215   0.0
-0.184470033395   0.041425754117   0.0
-0.190147395842   0.037669635349   0.0
-0.195550871801   0.032035137065   0.0
0.000000000000   0.177077208334   0.0
-0.023901819805   0.177604800060   0.0
-0.050704912374   0.179400707536   0.0
-0.072433050644   0.182543980861   0.0
-0.105147331648   0.199666241523   0.0
-0.129227012157   0.202704672620   0.0
-0.132073468107   0.159324722415   0.0
-0.134107652332   0.121600447602   0.0
-0.138056440536   0.099370005284   0.0
-0.144529919203   0.085936088878   0.0
-0.150958099828   0.078672674951   0.0
-0.157072825072   0.073767128679   0.0
-0.163105810091   0.070343038773   0.0
-0.169191702065   0.066934345004   0.0
-0.175351960411   0.062986058417   0.0
-0.181457080304   0.057570846622   0.0
-0.187259469475   0.049673181971   0.0
0.000000000000   0.234666236615   0.0
-0.023668392211   0.233297776504   0.0
-0.046001255736   0.236058067926   0.0
-0.073300709174   0.243294351316   0.0
-0.095926701988   0.259335915846   0.0
-0.106603250954   0.227227405254   0.0
-0.105669812839   0.176090742200   0.0
-0.109882849396   0.140495268868   0.0
-0.117924947999   0.126926672986   0.0
-0.126501562707   0.114159256818   0.0
-0.134917722160   0.105886149215   0.0
-0.142605253838   0.099700956019   0.0
-0.149982980391   0.095080220486   0.0
-0.156981857199   0.090535288103   0.0
-0.163811770910   0.085391062659   0.0
-0.170409003654   0.078588991620   0.0
-0.176670931537   0.068982192002   0.0
0.000000000000   0.295046453198   0.0
-0.023048883089   0.297364619105   0.0
-0.042714360644   0.292200683086   0.0
-0.063010581207   0.298685717642   0.0
-0.075005125229   0.281064951396   0.0
-0.074132836866   0.236153412264   0.0
-0.076543230074   0.193303300979   0.0
-0.088282987744   0.168995875893   0.0
-0.099344680108   0.154034354248   0.0
-0.108976749796   0.142261801840   0.0
-0.118477496997   0.132981153506   0.0
-0.127281951857   0.126112106068   0.0
-0.135584220734   0.120329136973   0.0
-0.143358504769   0.114875576457   0.0
-0.150757594450   0.108694661655   0.0
-0.157813593993   0.100852296728   0.0
-0.164571885424   0.090154046560   0.0
0.000000000000   0.345390949077   0.0
-0.020928312675   0.343882968426   0.0
-0.037424166206   0.333367618921   0.0
-0.042572379070   0.314592251461   0.0
-0.043217195032   0.283343030015   0.0
-0.046119114784   0.247356895261   0.0
-0.057370754285   0.218946168183   0.0
-0.069844892816   0.198085143156   0.0
-0.081481098167   0.181690127710   0.0
-0.092392163781   0.169557887552   0.0
-0.102488462815   0.160094896725   0.0
-0.112023346605   0.152501686610   0.0
-0.120883765613   0.146035429686   0.0
-0.129211879182   0.139783896310   0.0
-0.137044914928   0.132890963470   0.0
-0.144507394798   0.124388521974   0.0
-0.151738792184   0.113189929559   0.0
0.000000000000   0.357421439669   0.0
-0.009834211158   0.352560451669   0.0
-0.015425651004   0.338244526051   0.0
-0.018533601495   0.315583945283   0.0
-0.022390640150   0.290771004370   0.0
-0.031708745190   0.266298743411   0.0
-0.043002837927   0.243183050135   0.0
-0.054539827445   0.223576977957   0.0
-0.066243294804   0.208472816813   0.0
-0.077215486706   0.196429083074   0.0
-0.087687341818   0.186754273007   0.0
-0.097440632335   0.178867414687   0.0
-0.106652100139   0.171905983717   0.0
-0.115260678311   0.165193070424   0.0
-0.123414414900   0.157874106891   0.0
-0.131214574279   0.149109352133   0.0
-0.138858913539   0.137951715183   0.0
0.000000000000   0.358419289583   0.0
-0.002913668824   0.354079327798   0.0
-0.005752077553   0.341555378635   0.0
-0.009104684422   0.323167186157   0.0
-0.015097360743   0.303786333983   0.0
-0.022847636067   0.284405784560   0.0
-0.032185623408   0.264827154580   0.0
-0.042783707335   0.248288291656   0.0
-0.053524383687   0.233858862214   0.0
-0.064157079532   0.222390858062   0.0
-0.074363350112   0.212906823510   0.0
-0.084130582429   0.204955810399   0.0
-0.093353485924   0.197847217829   0.0
-0.102110271040   0.190944917791   0.0
-0.110440483227   0.183533742304   0.0
-0.118493410647   0.174886246858   0.0
-0.126495253633   0.164212572778   0.0
0.000000000000   0.359619131631   0.0
-0.000725632458   0.356110579578   0.0
-0.002196447228   0.346490015911   0.0
-0.005405738792   0.332777494639   0.0
-0.010186056205   0.317095857442   0.0
-0.016522739393   0.300782805719   0.0
-0.024527017388   0.285063733801   0.0
-0.033538237157   0.270345466949   0.0
-0.043227270549   0.257949993381   0.0
-0.053111538219   0.247303027045   0.0
-0.062852267363   0.238375533178   0.0
-0.072308628884   0.230675802602   0.0
-0.081405944659   0.223716046938   0.0
-0.090133887163   0.216933096810   0.0
-0.098553145482   0.209743366603   0.0
-0.106793656563   0.201534406811   0.0
-0.115074144226   0.191705953351   0.0
0.000000000000   0.362284355076   0.0
0.000105995519   0.359763497184   0.0
-0.000639606642   0.352567985171   0.0
-0.002709236543   0.341969282482   0.0
-0.006518480960   0.329586392632   0.0
-0.011920499188   0.316573426496   0.0
-0.018563347774   0.303503678601   0.0
-0.026455847855   0.291529386147   0.0
-0.035064584663   0.280596546119   0.0
-0.044033287198   0.271214109429   0.0
-0.053140351105   0.263085415069   0.0
-0.062159341226   0.255960430242   0.0
-0.070993874783   0.249430340837   0.0
-0.079606451912   0.243059384696   0.0
-0.088037605812   0.236369976457   0.0
-0.096398999010   0.228890109896   0.0
-0.104895406180   0.220162130555   0.0
0.000000000000   0.366475951988   0.0
0.000402771100   0.364579567579   0.0
0.000125605448   0.359284910675   0.0
-0.001402092809   0.351393664291   0.0