<VTKFile type="UnstructuredGrid"  version="0.1"   > 
<UnstructuredGrid> 
<Piece  NumberOfPoints="  784" NumberOfCells=" 729"> 
<Points> 
<DataArray  type="Float64"  NumberOfComponents="3"  format="ascii" > 
0.000000 0.000000 0.0 
0.037037 0.000000 0.0 
0.074074 0.000000 0.0 
0.111111 0.000000 0.0 
0.148148 0.000000 0.0 
0.185185 0.000000 0.0 
0.222222 0.000000 0.0 
0.259259 0.000000 0.0 
0.296296 0.000000 0.0 
0.333333 0.000000 0.0 
0.370370 0.000000 0.0 
0.407407 0.000000 0.0 
0.444444 0.000000 0.0 
0.481481 0.000000 0.0 
0.518519 0.000000 0.0 
0.555556 0.000000 0.0 
0.592593 0.000000 0.0 
0.629630 0.000000 0.0 
0.666667 0.000000 0.0 
0.703704 0.000000 0.0 
0.740741 0.000000 0.0 
0.777778 0.000000 0.0 
0.814815 0.000000 0.0 
0.851852 0.000000 0.0 
0.888889 0.000000 0.0 
0.925926 0.000000 0.0 
0.962963 0.000000 0.0 
1.000000 0.000000 0.0 
0.000000 0.037037 0.0 
0.037037 0.037037 0.0 
0.074074 0.037037 0.0 
0.111111 0.037037 0.0 
0.148148 0.037037 0.0 
0.185185 0.037037 0.0 
0.222222 0.037037 0.0 
0.259259 0.037037 0.0 
0.296296 0.037037 0.0 
0.333333 0.037037 0.0 
0.370370 0.037037 0.0 
0.407407 0.037037 0.0 
0.444444 0.037037 0.0 
0.481481 0.037037 0.0 
0.518519 0.037037 0.0 
0.555556 0.037037 0.0 
0.592593 0.037037 0.0 
0.629630 0.037037 0.0 
0.666667 0.037037 0.0 
0.703704 0.037037 0.0 
0.740741 0.037037 0.0 
0.777778 0.037037 0.0 
0.814815 0.037037 0.0 
0.851852 0.037037 0.0 
0.888889 0.037037 0.0 
0.925926 0.037037 0.0 
0.962963 0.037037 0.0 
1.000000 0.037037 0.0 
0.000000 0.074074 0.0 
0.037037 0.074074 0.0 
0.074074 0.074074 0.0 
0.111111 0.074074 0.0 
0.148148 0.074074 0.0 
0.185185 0.074074 0.0 
0.222222 0.074074 0.0 
0.259259 0.074074 0.0 
0.296296 0.074074 0.0 
0.333333 0.074074 0.0 
0.370370 0.074074 0.0 
0.407407 0.074074 0.0 
0.444444 0.074074 0.0 
0.481481 0.074074 0.0 
0.518519 0.074074 0.0 
0.555556 0.074074 0.0 
0.592593 0.074074 0.0 
0.629630 0.074074 0.0 
0.666667 0.074074 0.0 
0.703704 0.074074 0.0 
0.740741 0.074074 0.0 
0.777778 0.074074 0.0 
0.814815 0.074074 0.0 
0.851852 0.074074 0.0 
0.888889 0.074074 0.0 
0.925926 0.074074 0.0 
0.962963 0.074074 0.0 
1.000000 0.074074 0.0 
0.000000 0.111111 0.0 
0.037037 0.111111 0.0 
0.074074 0.111111 0.0 
0.111111 0.111111 0.0 
0.148148 0.111111 0.0 
0.185185 0.111111 0.0 
0.222222 0.111111 0.0 
0.259259 0.111111 0.0 
0.296296 0.111111 0.0 
0.333333 0.111111 0.0 
0.370370 0.111111 0.0 
0.407407 0.111111 0.0 
0.444444 0.111111 0.0 
0.481481 0.111111 0.0 
0.518519 0.111111 0.0 
0.555556 0.111111 0.0 
0.592593 0.111111 0.0 
0.629630 0.111111 0.0 
0.666667 0.111111 0.0 
0.703704 0.111111 0.0 
0.740741 0.111111 0.0 
0.777778 0.111111 0.0 
0.814815 0.111111 0.0 
0.851852 0.111111 0.0 
0.888889 0.111111 0.0 
0.925926 0.111111 0.0 
0.962963 0.111111 0.0 
1.000000 0.111111 0.0 
0.000000 0.148148 0.0 
0.037037 0.148148 0.0 
0.074074 0.148148 0.0 
0.111111 0.148148 0.0 
0.148148 0.148148 0.0 
0.185185 0.148148 0.0 
0.222222 0.148148 0.0 
0.259259 0.148148 0.0 
0.296296 0.148148 0.0 
0.333333 0.148148 0.0 
0.370370 0.148148 0.0 
0.407407 0.148148 0.0 
0.444444 0.148148 0.0 
0.481481 0.148148 0.0 
0.518519 0.148148 0.0 
0.555556 0.148148 0.0 
0.592593 0.148148 0.0 
0.629630 0.148148 0.0 
0.666667 0.148148 0.0 
0.703704 0.148148 0.0 
0.740741 0.148148 0.0 
0.777778 0.148148 0.0 
0.814815 0.148148 0.0 
0.851852 0.148148 0.0 
0.888889 0.148148 0.0 
0.925926 0.148148 0.0 
0.962963 0.148148 0.0 
1.000000 0.148148 0.0 
0.000000 0.185185 0.0 
0.037037 0.185185 0.0 
0.074074 0.185185 0.0 
0.111111 0.185185 0.0 
0.148148 0.185185 0.0 
0.185185 0.185185 0.0 
0.222222 0.185185 0.0 
0.259259 0.185185 0.0 
0.296296 0.185185 0.0 
0.333333 0.185185 0.0 
0.370370 0.185185 0.0 
0.407407 0.185185 0.0 
0.444444 0.185185 0.0 
0.481481 0.185185 0.0 
0.518519 0.185185 0.0 
0.555556 0.185185 0.0 
0.592593 0.185185 0.0 
0.629630 0.185185 0.0 
0.666667 0.185185 0.0 
0.703704 0.185185 0.0 
0.740741 0.185185 0.0 
0.777778 0.185185 0.0 
0.814815 0.185185 0.0 
0.851852 0.185185 0.0 
0.888889 0.185185 0.0 
0.925926 0.185185 0.0 
0.962963 0.185185 0.0 
1.000000 0.185185 0.0 
0.000000 0.222222 0.0 
0.037037 0.222222 0.0 
0.074074 0.222222 0.0 
0.111111 0.222222 0.0 
0.148148 0.222222 0.0 
0.185185 0.222222 0.0 
0.222222 0.222222 0.0 
0.259259 0.222222 0.0 
0.296296 0.222222 0.0 
0.333333 0.222222 0.0 
0.370370 0.222222 0.0 
0.407407 0.222222 0.0 
0.444444 0.222222 0.0 
0.481481 0.222222 0.0 
0.518519 0.222222 0.0 
0.555556 0.222222 0.0 
0.592593 0.222222 0.0 
0.629630 0.222222 0.0 
0.666667 0.222222 0.0 
0.703704 0.222222 0.0 
0.740741 0.222222 0.0 
0.777778 0.222222 0.0 
0.814815 0.222222 0.0 
0.851852 0.222222 0.0 
0.888889 0.222222 0.0 
0.925926 0.222222 0.0 
0.962963 0.222222 0.0 
1.000000 0.222222 0.0 
0.000000 0.259259 0.0 
0.037037 0.259259 0.0 
0.074074 0.259259 0.0 
0.111111 0.259259 0.0 
0.148148 0.259259 0.0 
0.185185 0.259259 0.0 
0.222222 0.259259 0.0 
0.259259 0.259259 0.0 
0.296296 0.259259 0.0 
0.333333 0.259259 0.0 
0.370370 0.259259 0.0 
0.407407 0.259259 0.0 
0.444444 0.259259 0.0 
0.481481 0.259259 0.0 
0.518519 0.259259 0.0 
0.555556 0.259259 0.0 
0.592593 0.259259 0.0 
0.629630 0.259259 0.0 
0.666667 0.259259 0.0 
0.703704 0.259259 0.0 
0.740741 0.259259 0.0 
0.777778 0.259259 0.0 
0.814815 0.259259 0.0 
0.851852 0.259259 0.0 
0.888889 0.259259 0.0 
0.925926 0.259259 0.0 
0.962963 0.259259 0.0 
1.000000 0.259259 0.0 
0.000000 0.296296 0.0 
0.037037 0.296296 0.0 
0.074074 0.296296 0.0 
0.111111 0.296296 0.0 
0.148148 0.296296 0.0 
0.185185 0.296296 0.0 
0.222222 0.296296 0.0 
0.259259 0.296296 0.0 
0.296296 0.296296 0.0 
0.333333 0.296296 0.0 
0.370370 0.296296 0.0 
0.407407 0.296296 0.0 
0.444444 0.296296 0.0 
0.481481 0.296296 0.0 
0.518519 0.296296 0.0 
0.555556 0.296296 0.0 
0.592593 0.296296 0.0 
0.629630 0.296296 0.0 
0.666667 0.296296 0.0 
0.703704 0.296296 0.0 
0.740741 0.296296 0.0 
0.777778 0.296296 0.0 
0.814815 0.296296 0.0 
0.851852 0.296296 0.0 
0.888889 0.296296 0.0 
0.925926 0.296296 0.0 
0.962963 0.296296 0.0 
1.000000 0.296296 0.0 
0.000000 0.333333 0.0 
0.037037 0.333333 0.0 
0.074074 0.333333 0.0 
0.111111 0.333333 0.0 
0.148148 0.333333 0.0 
0.185185 0.333333 0.0 
0.222222 0.333333 0.0 
0.259259 0.333333 0.0 
0.296296 0.333333 0.0 
0.333333 0.333333 0.0 
0.370370 0.333333 0.0 
0.407407 0.333333 0.0 
0.444444 0.333333 0.0 
0.481481 0.333333 0.0 
0.518519 0.333333 0.0 
0.555556 0.333333 0.0 
0.592593 0.333333 0.0 
0.629630 0.333333 0.0 
0.666667 0.333333 0.0 
0.703704 0.333333 0.0 
0.740741 0.333333 0.0 
0.777778 0.333333 0.0 
0.814815 0.333333 0.0 
0.851852 0.333333 0.0 
0.888889 0.333333 0.0 
0.925926 0.333333 0.0 
0.962963 0.333333 0.0 
1.000000 0.333333 0.0 
0.000000 0.370370 0.0 
0.037037 0.370370 0.0 
0.074074 0.370370 0.0 
0.111111 0.370370 0.0 
0.148148 0.370370 0.0 
0.185185 0.370370 0.0 
0.222222 0.370370 0.0 
0.259259 0.370370 0.0 
0.296296 0.370370 0.0 
0.333333 0.370370 0.0 
0.370370 0.370370 0.0 
0.407407 0.370370 0.0 
0.444444 0.370370 0.0 
0.481481 0.370370 0.0 
0.518519 0.370370 0.0 
0.555556 0.370370 0.0 
0.592593 0.370370 0.0 
0.629630 0.370370 0.0 
0.666667 0.370370 0.0 
0.703704 0.370370 0.0 
0.740741 0.370370 0.0 
0.777778 0.370370 0.0 
0.814815 0.370370 0.0 
0.851852 0.370370 0.0 
0.888889 0.370370 0.0 
0.925926 0.370370 0.0 
0.962963 0.370370 0.0 
1.000000 0.370370 0.0 
0.000000 0.407407 0.0 
0.037037 0.407407 0.0 
0.074074 0.407407 0.0 
0.111111 0.407407 0.0 
0.148148 0.407407 0.0 
0.185185 0.407407 0.0 
0.222222 0.407407 0.0 
0.259259 0.407407 0.0 
0.296296 0.407407 0.0 
0.333333 0.407407 0.0 
0.370370 0.407407 0.0 
0.407407 0.407407 0.0 
0.444444 0.407407 0.0 
0.481481 0.407407 0.0 
0.518519 0.407407 0.0 
0.555556 0.407407 0.0 
0.592593 0.407407 0.0 
0.629630 0.407407 0.0 
0.666667 0.407407 0.0 
0.703704 0.407407 0.0 
0.740741 0.407407 0.0 
0.777778 0.407407 0.0 
0.814815 0.407407 0.0 
0.851852 0.407407 0.0 
0.888889 0.407407 0.0 
0.925926 0.407407 0.0 
0.962963 0.407407 0.0 
1.000000 0.407407 0.0 
0.000000 0.444444 0.0 
0.037037 0.444444 0.0 
0.074074 0.444444 0.0 
0.111111 0.444444 0.0 
0.148148 0.444444 0.0 
0.185185 0.444444 0.0 
0.222222 0.444444 0.0 
0.259259 0.444444 0.0 
0.296296 0.444444 0.0 
0.333333 0.444444 0.0 
0.370370 0.444444 0.0 
0.407407 0.444444 0.0 
0.444444 0.444444 0.0 
0.481481 0.444444 0.0 
0.518519 0.444444 0.0 
0.555556 0.444444 0.0 
0.592593 0.444444 0.0 
0.629630 0.444444 0.0 
0.666667 0.444444 0.0 
0.703704 0.444444 0.0 
0.740741 0.444444 0.0 
0.777778 0.444444 0.0 
0.814815 0.444444 0.0 
0.851852 0.444444 0.0 
0.888889 0.444444 0.0 
0.925926 0.444444 0.0 
0.962963 0.444444 0.0 
1.000000 0.444444 0.0 
0.000000 0.481481 0.0 
0.037037 0.481481 0.0 
0.074074 0.481481 0.0 
0.111111 0.481481 0.0 
0.148148 0.481481 0.0 
0.185185 0.481481 0.0 
0.222222 0.481481 0.0 
0.259259 0.481481 0.0 
0.296296 0.481481 0.0 
0.333333 0.481481 0.0 
0.370370 0.481481 0.0 
0.407407 0.481481 0.0 
0.444444 0.481481 0.0 
0.481481 0.481481 0.0 
0.518519 0.481481 0.0 
0.555556 0.481481 0.0 
0.592593 0.481481 0.0 
0.629630 0.481481 0.0 
0.666667 0.481481 0.0 
0.703704 0.481481 0.0 
0.740741 0.481481 0.0 
0.777778 0.481481 0.0 
0.814815 0.481481 0.0 
0.851852 0.481481 0.0 
0.888889 0.481481 0.0 
0.925926 0.481481 0.0 
0.962963 0.481481 0.0 
1.000000 0.481481 0.0 
0.000000 0.518519 0.0 
0.037037 0.518519 0.0 
0.074074 0.518519 0.0 
0.111111 0.518519 0.0 
0.148148 0.518519 0.0 
0.185185 0.518519 0.0 
0.222222 0.518519 0.0 
0.259259 0.518519 0.0 
0.296296 0.518519 0.0 
0.333333 0.518519 0.0 
0.370370 0.518519 0.0 
0.407407 0.518519 0.0 
0.444444 0.518519 0.0 
0.481481 0.518519 0.0 
0.518519 0.518519 0.0 
0.555556 0.518519 0.0 
0.592593 0.518519 0.0 
0.629630 0.518519 0.0 
0.666667 0.518519 0.0 
0.703704 0.518519 0.0 
0.740741 0.518519 0.0 
0.777778 0.518519 0.0 
0.814815 0.518519 0.0 
0.851852 0.518519 0.0 
0.888889 0.518519 0.0 
0.925926 0.518519 0.0 
0.962963 0.518519 0.0 
1.000000 0.518519 0.0 
0.000000 0.555556 0.0 
0.037037 0.555556 0.0 
0.074074 0.555556 0.0 
0.111111 0.555556 0.0 
0.148148 0.555556 0.0 
[...]
<PointData  Vectors="sigma"> 
<DataArray  type="Float64"  Name="sigma" NumberOfComponents="4" format="ascii"> 
0.000261388   1.78684   -4.39961e-08   1.78671   
-0.000776269   1.83886   3.19144e-05   1.83925   
-0.00220225   1.89171   2.92611e-05   1.89281   
-0.00277276   1.94271   2.51801e-05   1.9441   
-0.00180558   1.98991   2.09022e-05   1.99081   
0.000910373   2.03208   1.66843e-05   2.03162   
0.00521315   2.06862   1.27728e-05   2.06602   
0.0106884   2.09942   9.35777e-06   2.0941   
0.0167875   2.12467   6.54461e-06   2.11633   
0.0229252   2.14476   4.35427e-06   2.13339   
0.0285514   2.16013   2.73832e-06   2.146   
0.0331961   2.17123   1.60049e-06   2.15482   
0.036495   2.17841   8.16402e-07   2.16039   
0.0382019   2.18193   2.4802e-07   2.16308   
0.0381931   2.18193   -2.48042e-07   2.16308   
0.0364689   2.1784   -8.16426e-07   2.1604   
0.0331535   2.17121   -1.60051e-06   2.15483   
0.0284944   2.16011   -2.73835e-06   2.146   
0.0228574   2.14473   -4.3543e-06   2.13339   
0.0167153   2.12464   -6.54464e-06   2.11633   
0.010622   2.09939   -9.35779e-06   2.0941   
0.00516628   2.0686   -1.27729e-05   2.06603   
0.000900254   2.03207   -1.66843e-05   2.03162   
-0.00176046   1.98993   -2.09022e-05   1.99081   
-0.00265618   1.94276   -2.51801e-05   1.94409   
-0.00200469   1.89179   -2.92611e-05   1.8928   
-0.000487405   1.83898   -3.19144e-05   1.83923   
0.000261389   1.78684   4.41067e-08   1.78671   
0.000217972   1.78575   0.000178029   1.78564   
-0.000760054   1.83863   0.00135442   1.83901   
-0.0020152   1.89208   0.00105095   1.89309   
-0.00229556   1.94344   -0.000192775   1.94458   
-0.000942834   1.99076   -0.0018765   1.99123   
0.00221389   2.03287   -0.00357364   2.03177   
0.00696926   2.06922   -0.00496975   2.06576   
0.012872   2.09975   -0.0058726   2.09337   
0.0193479   2.12472   -0.00619962   2.11514   
0.0257981   2.14453   -0.00595315   2.13177   
0.0316681   2.15967   -0.00519345   2.14403   
0.0364897   2.17058   -0.00401546   2.15258   
0.0399028   2.17764   -0.00253209   2.15797   
0.0416656   2.1811   -0.000863928   2.16057   
0.041657   2.18109   0.000865922   2.16057   
0.039877   2.17763   0.00253384   2.15797   
0.0364473   2.17056   0.00401668   2.15258   
0.0316109   2.15964   0.00519377   2.14403   
0.0257293   2.1445   0.00595211   2.13178   
0.0192735   2.12468   0.00619666   2.11514   
0.0128017   2.09972   0.00586712   2.09337   
0.00691691   2.0692   0.00496124   2.06576   
0.00219721   2.03286   0.00356188   2.03177   
-0.00090415   1.99077   0.00186176   1.99123   
-0.00218362   1.94348   0.000175958   1.94458   
-0.00181895   1.89217   -0.00106871   1.89308   
-0.000469156   1.83876   -0.00137467   1.83899   
0.000217973   1.78575   -0.000178028   1.78564   
0.000126901   1.78266   0.000367318   1.7826   
-0.000695572   1.83809   0.00246473   1.83844   
-0.00142488   1.89334   0.00161397   1.89406   
-0.000809865   1.94572   -0.00108907   1.94613   
0.00172577   1.99337   -0.00460474   1.99252   
0.00622491   2.03523   -0.0080619   2.03218   
0.0123478   2.07096   -0.0108358   2.0649   
0.019532   2.10067   -0.0125607   2.09109   
0.0271291   2.12476   -0.0130953   2.11145   
0.0345027   2.14375   -0.0124661   2.12682   
0.0410891   2.15819   -0.010809   2.13802   
0.0464278   2.16855   -0.00832228   2.14576   
0.0501739   2.17524   -0.00523407   2.15061   
0.0520994   2.17852   -0.00178353   2.15294   
0.052091   2.17851   0.00178769   2.15294   
0.0501489   2.17523   0.00523777   2.15061   
0.0463863   2.16854   0.00832498   2.14577   
0.0410316   2.15816   0.01081   2.13802   
0.0344315   2.14372   0.0124645   2.12682   
0.0270485   2.12473   0.0130899   2.11145   
0.0194505   2.10064   0.0125502   2.09109   
0.012279   2.07093   0.010819   2.06491   
0.00618792   2.03522   0.00803823   2.03218   
0.001744   1.99337   0.00457452   1.99252   
-0.00071313   1.94576   0.00105407   1.94612   
-0.00123335   1.89342   -0.00165129   1.89404   
-0.000398503   1.83821   -0.00250716   1.83842   
0.000126903   1.78266   -0.000367318   1.7826   
-2.07865e-05   1.77785   0.000576297   1.77786   
-0.000575144   1.83759   0.00312645   1.83788   
-0.000363595   1.89584   0.00121154   1.89602   
0.00184282   1.94985   -0.00340237   1.94894   
0.00645351   1.9979   -0.0090503   1.99474   
0.0132693   2.03922   -0.0143833   2.03277   
0.0217105   2.07379   -0.0184819   2.06327   
0.0310284   2.10204   -0.0208519   2.08701   
0.0404605   2.12461   -0.0213458   2.105   
0.0493219   2.14221   -0.0200586   2.11827   
0.0570468   2.15548   -0.017232   2.12774   
0.0631985   2.16496   -0.0131829   2.13418   
0.0674636   2.17105   -0.00825752   2.13816   
0.0696413   2.17402   -0.00280827   2.14006   
0.0696337   2.17402   0.00281488   2.14006   
0.0674405   2.17104   0.00826355   2.13816   
0.0631591   2.16494   0.0131876   2.13419   
0.0569903   2.15546   0.0172344   2.12775   
0.0492481   2.14218   0.0200573   2.11827   
0.0403713   2.12458   0.0213391   2.10501   
0.0309295   2.102   0.0208375   2.08701   
0.0216142   2.07375   0.0184576   2.06327   
0.0131965   2.03919   0.0143476   2.03277   
0.00643367   1.99789   0.00900316   1.99474   
0.00190959   1.94988   0.00334629   1.94894   
-0.000182972   1.89592   -0.0012724   1.89601   
-0.000267657   1.83772   -0.00319541   1.83786   
-2.07853e-05   1.77785   -0.000576296   1.77786   
-0.000242067   1.77182   0.000816868   1.77195   
-0.000382717   1.83778   0.00305086   1.83798   
0.00130294   1.90022   -0.000769615   1.89957   
0.00596965   1.95632   -0.00800217   1.95339   
0.0137183   2.00462   -0.0162155   1.99799   
0.0239442   2.04485   -0.023545   2.03339   
0.0357004   2.07753   -0.0288235   2.06051   
0.0479819   2.10356   -0.0315163   2.0807   
0.0598936   2.12394   -0.0315595   2.09535   
0.0707156   2.13958   -0.0291857   2.10572   
0.0799085   2.15123   -0.0247844   2.11285   
0.0870897   2.1595   -0.0188082   2.11755   
0.0920033   2.16479   -0.011721   2.12038   
0.0944937   2.16736   -0.00397626   2.12171   
0.0944873   2.16736   0.00398568   2.12171   
0.0919836   2.16478   0.0117298   2.12038   
0.087055   2.15948   0.0188156   2.11755   
0.0798559   2.15121   0.0247893   2.11285   
0.070642   2.13954   0.0291863   2.10572   
0.0597965   2.1239   0.0315533   2.09535   
0.0478622   2.10351   0.0315   2.0807   
0.0355665   2.07747   0.0287933   2.06052   
0.0238175   2.04479   0.0234976   2.03339   
0.0136362   2.00458   0.0161495   1.99799   
0.00598306   1.95632   0.00792025   1.95338   
0.00146014   1.90028   0.000678142   1.89955   
-6.08161e-05   1.83791   -0.00315437   1.83795   
-0.000242066   1.77182   -0.000816867   1.77194   
-0.000567258   1.76535   0.00110735   1.76564   
-8.75038e-05   1.83965   0.00185187   1.8397   
0.00381862   1.90743   -0.00513551   1.90554   
0.0121089   1.9658   -0.0159826   1.95996   
0.0243232   2.01382   -0.0272849   2.00233   
0.0392085   2.05206   -0.0366487   2.03373   
0.0553026   2.08186   -0.0427766   2.0561   
0.0713005   2.10477   -0.0452528   2.07152   
0.0861988   2.12222   -0.0442343   2.08187   
0.0992973   2.13534   -0.0401823   2.08862   
0.110141   2.14499   -0.0336792   2.09291   
0.118449   2.15178   -0.0253248   2.09553   
0.124058   2.15611   -0.0156903   2.09701   
0.12688   2.15821   -0.00530775   2.09767   
0.126875   2.15821   0.00532033   2.09767   
0.124044   2.1561   0.0157024   2.09701   
0.118422   2.15177   0.0253358   2.09553   
0.110097   2.14498   0.0336879   2.09291   
0.0992299   2.13531   0.0401867   2.08862   
0.0860994   2.12217   0.0442313   2.08187   
0.071162   2.10471   0.0452379   2.07153   
0.0551248   2.08178   0.0427438   2.0561   
0.039008   2.05197   0.0365912   2.03374   
0.0241449   2.01374   0.0271982   2.00233   
0.0120296   1.96576   0.0158678   1.95997   
0.00392636   1.90747   0.00500153   1.90553   
0.000250973   1.8398   -0.00200414   1.83968   
-0.00056726   1.76535   -0.00110735   1.76564   
-0.00105131   1.75958   0.00147823   1.76011   
0.000370912   1.84472   -0.00103262   1.84453   
0.00762803   1.91885   -0.013026   1.91518   
0.0211912   1.97917   -0.0287952   1.9693   
0.0395746   2.02578   -0.0436929   2.00771   
0.0605228   2.06059   -0.0548809   2.03323   
0.0819217   2.08619   -0.0611948   2.0492   
0.102197   2.10495   -0.0626042   2.05862   
0.12034   2.11874   -0.0596744   2.06379   
0.135785   2.12887   -0.0531936   2.06638   
0.148251   2.13623   -0.0439692   2.0675   
0.157622   2.14137   -0.0327407   2.06785   
0.163867   2.14464   -0.0201592   2.06787   
0.166985   2.14623   -0.00679905   2.06783   
0.166983   2.14623   0.006815   2.06783   
0.16386   2.14463   0.020175   2.06788   
0.157608   2.14136   0.032756   2.06785   
0.148223   2.13621   0.0439829   2.0675   
0.135734   2.12885   0.0532041   2.06638   
0.120251   2.1187   0.0596783   2.0638   
0.102051   2.10489   0.0625958   2.05862   
0.0817029   2.0861   0.0611652   2.04921   
0.0602311   2.06047   0.0548184   2.03324   
0.0392536   2.02564   0.0435856   2.00772   
0.0209514   1.97907   0.0286384   1.9693   
0.00763093   1.91885   0.0128297   1.91517   
0.00072103   1.84487   0.000805801   1.84451   
-0.00105132   1.75958   -0.00147823   1.76011   
-0.00179891   1.75621   0.00198452   1.75711   
0.00111989   1.8552   -0.00649242   1.85467   
0.0135763   1.93639   -0.0261627   1.93017   
0.0348538   1.99745   -0.048438   1.98203   
0.0615797   2.0405   -0.0671651   2.01378   
0.0900395   2.06978   -0.0794266   2.03092   
0.11745   2.08954   -0.0847221   2.03865   
0.142166   2.10308   -0.0838089   2.04089   
0.163407   2.11259   -0.0778708   2.04027   
0.180915   2.11942   -0.0680911   2.03842   
0.194699   2.12435   -0.0554931   2.03627   
0.204873   2.12781   -0.0409144   2.03436   
0.211568   2.13002   -0.0250341   2.03298   
0.214889   2.13111   -0.00841766   2.03225   
0.21489   2.13111   0.00843693   2.03225   
0.211571   2.13002   0.0250537   2.03298   
0.204875   2.12781   0.0409344   2.03437   
0.194694   2.12435   0.0555132   2.03628   
0.180893   2.11941   0.06811   2.03842   
0.163347   2.11256   0.0778858   2.04028   
0.142039   2.10302   0.0838139   2.04089   
0.117213   2.08943   0.0847058   2.03865   
0.0896558   2.06961   0.0793703   2.03093   
0.0610616   2.04028   0.0670433   2.01379   
0.0343379   1.99723   0.0482296   1.98205   
0.0133535   1.93629   0.0258711   1.93017   
0.00145283   1.85534   0.0061418   1.85464   
-0.00179892   1.75621   -0.00198453   1.75711   
-0.00302545   1.75778   0.00273517   1.7593   
0.00245778   1.87449   -0.0160673   1.87347   
0.0233763   1.96267   -0.0473076   1.9528   
0.056057   2.02154   -0.0776955   1.99864   
0.093708   2.05737   -0.099643   2.01954   
0.1308   2.07818   -0.11121   2.02515   
0.164257   2.09032   -0.113509   2.0228   
0.192869   2.09776   -0.108577   2.01707   
0.216458   2.1027   -0.0983548   2.01049   
0.235294   2.10622   -0.0843894   2.00433   
0.249775   2.10884   -0.0678344   1.99916   
0.260282   2.11074   -0.0495362   1.99523   
0.267118   2.112   -0.0301268   1.9926   
0.270487   2.11263   -0.0101008   1.99129   
0.270492   2.11264   0.010123   1.99129   
0.267131   2.11201   0.0301498   1.9926   
0.260302   2.11075   0.0495608   1.99523   
0.249799   2.10885   0.0678612   1.99916   
0.235312   2.10623   0.0844185   2.00433   
0.216453   2.1027   0.098385   2.0105   
0.192801   2.09774   0.108604   2.01708   
0.164058   2.09023   0.113521   2.0228   
0.13037   2.078   0.111182   2.02515   
0.0929598   2.05705   0.0995288   2.01955   
0.0550817   2.02112   0.0774342   1.99865   
0.0226567   1.96235   0.0468674   1.95281   
0.00266545   1.87457   0.0154916   1.87344   
-0.00302541   1.75778   -0.00273526   1.7593   
-0.0052239   1.76832   0.00397656   1.77095   
0.00518719   1.90801   -0.0327131   1.90626   
0.0407851   2.00112   -0.081129   1.98602   
0.0902644   2.05153   -0.120306   2.01871   
0.141172   2.07432   -0.142841   2.02265   
0.186768   2.08322   -0.150297   2.0133   
0.224949   2.0863   -0.146747   1.99964   
0.255828   2.08739   -0.135813   1.98594   
0.280262   2.08799   -0.120064   1.97391   
0.299199   2.0886   -0.101198   1.96408   
0.313452   2.08929   -0.0803144   1.95648   
0.323643   2.08995   -0.0581376   1.95099   
0.330211   2.09047   -0.0351646   1.94744   
0.333431   2.09076   -0.0117592   1.9457   
0.333438   2.09076   0.0117836   1.9457   
0.330232   2.09048   0.0351904   1.94744   
0.323679   2.08996   0.0581663   1.951   
0.313504   2.08931   0.0803476   1.95649   
0.299264   2.08863   0.101238   1.96409   
0.280329   2.08802   0.120112   1.97392   
0.255867   2.0874   0.135868   1.98595   
0.224884   2.08628   0.146806   1.99965   
0.186431   2.08307   0.150335   2.0133   
0.14028   2.07394   0.142792   2.02266   
0.0886122   2.05082   0.12003   2.01872   
0.0389567   2.00033   0.080465   1.98603   
0.00488474   1.90787   0.0316815   1.90623   
-0.00522304   1.76832   -0.00397728   1.77095   
-0.00972048   1.79449   0.00639084   1.7994   
0.0119119   1.96513   -0.0629141   1.96223   
0.0747627   2.05578   -0.13575   2.03308   
0.147392   2.0848   -0.180416   2.03923   
0.211258   2.08652   -0.196854   2.01833   
0.262255   2.08081   -0.194799   1.99166   
0.301679   2.07481   -0.182086   1.96708   
0.331877   2.07039   -0.163393   1.9467   
0.354913   2.06765   -0.141311   1.9306   
0.372338   2.0662   -0.117264   1.91827   
0.385244   2.0656   -0.0920519   1.90913   
0.394376   2.06548   -0.0661419   1.9027   
0.400225   2.06555   -0.0398228   1.89861   
0.403084   2.06563   -0.0132884   1.89663   
0.403092   2.06563   0.0133138   1.89663   
0.40025   2.06556   0.0398501   1.89862   
0.394421   2.0655   0.0661731   1.90271   
0.385312   2.06563   0.0920897   1.90914   
0.372437   2.06624   0.117312   1.91828   
0.355048   2.06771   0.141375   1.93062   
0.332045   2.07046   0.16348   1.94673   
0.301842   2.07489   0.182203   1.96712   
0.262261   2.08082   0.194946   1.9917   
0.210637   2.08625   0.196983   2.01836   
0.145145   2.08383   0.1803   2.03923   
0.0705686   2.05397   0.134837   2.03307   
0.00965542   1.96415   0.0608303   1.96218   
-0.00971132   1.7945   -0.00639688   1.79941   
-0.0215351   1.84629   0.0121559   1.85728   
0.0338547   2.06612   -0.123813   2.06059   
0.147624   2.12805   -0.224325   2.09456   
0.24303   2.11048   -0.258816   2.04969   
0.311623   2.08528   -0.257016   1.99846   
0.360051   2.0662   -0.23948   1.95626   
0.394847   2.05366   -0.215294   1.92395   
0.420393   2.04596   -0.188256   1.89971   
0.439424   2.04152   -0.159977   1.88165   
0.453639   2.03917   -0.131157   1.86831   
0.464102   2.03808   -0.102107   1.85864   
0.471488   2.03767   -0.0729614   1.85193   
0.476213   2.03759   -0.0437799   1.8477   
0.478523   2.03761   -0.014586   1.84565   
0.47853   2.03761   0.0146113   1.84565   
0.476236   2.0376   0.0438072   1.8477   
0.47153   2.03769   0.0729932   1.85194   
0.464171   2.0381   0.102146   1.85866   
0.453746   2.03922   0.13121   1.86833   
0.439589   2.0416   0.16005   1.88168   
0.420646   2.04607   0.188365   1.89977   
0.39523   2.05383   0.215463   1.92404   
0.360578   2.06643   0.239751   1.9564   
0.31205   2.08547   0.257446   1.99865   
0.241832   2.10996   0.25936   2.04987   
0.139919   2.12469   0.223768   2.09447   
0.0237514   2.06175   0.119071   2.06033   
-0.0214478   1.8464   -0.0122047   1.85733   
-0.0806985   1.89892   0.0197101   1.94083   
0.140733   2.29046   -0.274209   2.2736   
0.301356   2.1804   -0.35226   2.13545   
0.391411   2.10479   -0.341088   2.02695   
0.444174   2.06161   -0.310178   1.95459   
0.478064   2.03693   -0.275568   1.90569   
0.501541   2.02277   -0.240947   1.87158   
0.518656   2.01478   -0.207086   1.84716   
0.531494   2.01046   -0.174022   1.82941   
0.541201   2.00832   -0.141613   1.81645   
0.548444   2.00743   -0.109696   1.80712   
0.553616   2.00718   -0.0781275   1.80066   
0.556957   2.0072   -0.0467868   1.79658   
0.558599   2.00727   -0.0155742   1.79461   
0.558604   2.00727   0.0155978   1.79461   
0.556973   2.00721   0.0468124   1.79659   
0.553647   2.00719   0.0781574   1.80067   
0.548495   2.00745   0.109734   1.80714   
0.541284   2.00835   0.141663   1.81648   
0.531628   2.01051   0.174095   1.82945   
0.518884   2.01487   0.207198   1.84723   
0.501948   2.02295   0.241134   1.87171   
0.478836   2.03726   0.275909   1.90593   
0.445694   2.06226   0.310856   1.95507   
0.393963   2.10589   0.3426   2.02792   
0.300368   2.17976   0.356293   2.13722   
0.100017   2.27231   0.266579   2.27141   
-0.0797978   1.89995   -0.020123   1.94139   
0.10212   3.04829   -0.367274   3.06527   
0.462989   2.26022   -0.495766   2.23916   
0.541397   2.10162   -0.437597   2.03632   
0.571366   2.0339   -0.382603   1.93398   
0.587555   1.99815   -0.335169   1.87104   
0.598917   1.97905   -0.292938   1.82961   
0.607834   1.9688   -0.254023   1.8007   
0.615143   1.96349   -0.217321   1.77976   
0.621208   1.96106   -0.182138   1.76436   
0.626171   1.96022   -0.147978   1.75295   
0.630104   1.96021   -0.114513   1.74461   
0.633045   1.96055   -0.0815092   1.73877   
0.635002   1.96093   -0.0487951   1.73506   
0.635981   1.96116   -0.0162419   1.73325   
0.635983   1.96116   0.0162607   1.73325   
0.63501   1.96093   0.0488173   1.73506   
0.63306   1.96056   0.0815348   1.73878   
0.630131   1.96022   0.114544   1.74462   
0.626212   1.96024   0.148019   1.75296   
0.621283   1.9611   0.182199   1.7644   
0.615273   1.96357   0.217423   1.77985   
0.608042   1.96888   0.25417   1.80079   
0.599324   1.9792   0.293198   1.82979   
0.588497   1.99852   0.335717   1.87147   
0.573769   2.03479   0.383715   1.93489   
0.544983   2.10383   0.441795   2.04012   
0.448101   2.24523   0.569757   2.28247   
0.0743879   2.97115   0.306695   2.98235   
0.419406   4.82719   0.490331   4.70897   
-0.705187   2.23157   -0.469288   2.77697   
-0.949603   2.0479   -0.476658   2.77884   
-1.00952   1.99348   -0.420984   2.7454   
-1.01741   1.9671   -0.367347   2.70384   
-1.00798   1.953   -0.319671   2.66559   
-0.992521   1.94555   -0.276414   2.63258   
-0.975498   1.94192   -0.236094   2.60466   
-0.959017   1.94051   -0.197704   2.58138   
-0.944197   1.94032   -0.160569   2.56237   
-0.931721   1.94072   -0.124244   2.54736   
-0.922033   1.94132   -0.0884323   2.53619   
-0.915428   1.94184   -0.0529279   2.52879   
-0.912087   1.94213   -0.0175858   2.5251   
-0.912097   1.94213   0.0177079   2.5251   
-0.915459   1.94183   0.0530576   2.52881   
-0.922088   1.9413   0.0885785   2.53624   
-0.931803   1.9407   0.12442   2.54743   
-0.944315   1.94029   0.160793   2.56247   
-0.959185   1.94047   0.198012   2.58154   
-0.975759   1.94186   0.236552   2.60491   
-0.992976   1.94543   0.277148   2.63304   
-1.00892   1.95277   0.32099   2.66656   
-1.01987   1.96653   0.370027   2.70624   
-1.0175   1.99173   0.426786   2.75232   
-0.975599   2.04238   0.485016   2.79667   
-0.528951   2.27723   0.404856   2.67616   
0.464399   4.83127   -0.49976   4.69707   
0.0333031   3.84563   0.0971549   3.83278   
0.0105549   2.66711   0.0549218   2.66355   
-0.28356   2.13992   -0.20731   2.3228   
-0.493077   1.98876   -0.297   2.33314   
-0.615655   1.93728   -0.309793   2.36912   
-0.686168   1.91676   -0.29367   2.39139   
-0.726875   1.90797   -0.266284   2.40172   
-0.750186   1.90436   -0.234162   2.40468   
-0.76315   1.90326   -0.199859   2.40356   
-0.769946   1.90337   -0.164441   2.40046   
-0.773157   1.90398   -0.128385   2.39676   
-0.774417   1.9047   -0.0919335   2.39333   
-0.774759   1.9053   -0.0552308   2.39075   
-0.774792   1.90562   -0.0183849   2.38939   
-0.774803   1.90562   0.0185097   2.3894   
-0.774791   1.90529   0.0553622   2.39078   
-0.774475   1.90469   0.0920794   2.39337   
-0.77325   1.90396   0.128556   2.39683   
-0.77009   1.90333   0.164654   2.40058   
-0.763375   1.9032   0.20014   2.40374   
-0.750548   1.90427   0.234556   2.40497   