<VTKFile type="UnstructuredGrid"  version="0.1"   > 
<UnstructuredGrid> 
<Piece  NumberOfPoints="  1089" NumberOfCells=" 1024"> 
<Points> 
<DataArray  type="Float64"  NumberOfComponents="3"  format="ascii" > 
-4.000000 -4.000000 0.0 
-3.750000 -4.000000 0.0 
-3.500000 -4.000000 0.0 
-3.250000 -4.000000 0.0 
-3.000000 -4.000000 0.0 
-2.750000 -4.000000 0.0 
-2.500000 -4.000000 0.0 
-2.250000 -4.000000 0.0 
-2.000000 -4.000000 0.0 
-1.750000 -4.000000 0.0 
-1.500000 -4.000000 0.0 
-1.250000 -4.000000 0.0 
-1.000000 -4.000000 0.0 
-0.750000 -4.000000 0.0 
-0.500000 -4.000000 0.0 
-0.250000 -4.000000 0.0 
0.000000 -4.000000 0.0 
0.250000 -4.000000 0.0 
0.500000 -4.000000 0.0 
0.750000 -4.000000 0.0 
1.000000 -4.000000 0.0 
1.250000 -4.000000 0.0 
1.500000 -4.000000 0.0 
1.750000 -4.000000 0.0 
2.000000 -4.000000 0.0 
2.250000 -4.000000 0.0 
2.500000 -4.000000 0.0 
2.750000 -4.000000 0.0 
3.000000 -4.000000 0.0 
3.250000 -4.000000 0.0 
3.500000 -4.000000 0.0 
3.750000 -4.000000 0.0 
4.000000 -4.000000 0.0 
-4.000000 -3.750000 0.0 
-3.750000 -3.750000 0.0 
-3.500000 -3.750000 0.0 
-3.250000 -3.750000 0.0 
-3.000000 -3.750000 0.0 
-2.750000 -3.750000 0.0 
-2.500000 -3.750000 0.0 
-2.250000 -3.750000 0.0 
-2.000000 -3.750000 0.0 
-1.750000 -3.750000 0.0 
-1.500000 -3.750000 0.0 
-1.250000 -3.750000 0.0 
-1.000000 -3.750000 0.0 
-0.750000 -3.750000 0.0 
-0.500000 -3.750000 0.0 
-0.250000 -3.750000 0.0 
0.000000 -3.750000 0.0 
0.250000 -3.750000 0.0 
0.500000 -3.750000 0.0 
0.750000 -3.750000 0.0 
1.000000 -3.750000 0.0 
1.250000 -3.750000 0.0 
1.500000 -3.750000 0.0 
1.750000 -3.750000 0.0 
2.000000 -3.750000 0.0 
2.250000 -3.750000 0.0 
2.500000 -3.750000 0.0 
2.750000 -3.750000 0.0 
3.000000 -3.750000 0.0 
3.250000 -3.750000 0.0 
3.500000 -3.750000 0.0 
3.750000 -3.750000 0.0 
4.000000 -3.750000 0.0 
-4.000000 -3.500000 0.0 
-3.750000 -3.500000 0.0 
-3.500000 -3.500000 0.0 
-3.250000 -3.500000 0.0 
-3.000000 -3.500000 0.0 
-2.750000 -3.500000 0.0 
-2.500000 -3.500000 0.0 
-2.250000 -3.500000 0.0 
-2.000000 -3.500000 0.0 
-1.750000 -3.500000 0.0 
-1.500000 -3.500000 0.0 
-1.250000 -3.500000 0.0 
-1.000000 -3.500000 0.0 
-0.750000 -3.500000 0.0 
-0.500000 -3.500000 0.0 
-0.250000 -3.500000 0.0 
0.000000 -3.500000 0.0 
0.250000 -3.500000 0.0 
0.500000 -3.500000 0.0 
0.750000 -3.500000 0.0 
1.000000 -3.500000 0.0 
1.250000 -3.500000 0.0 
1.500000 -3.500000 0.0 
1.750000 -3.500000 0.0 
2.000000 -3.500000 0.0 
2.250000 -3.500000 0.0 
2.500000 -3.500000 0.0 
2.750000 -3.500000 0.0 
3.000000 -3.500000 0.0 
3.250000 -3.500000 0.0 
3.500000 -3.500000 0.0 
3.750000 -3.500000 0.0 
4.000000 -3.500000 0.0 
-4.000000 -3.250000 0.0 
-3.750000 -3.250000 0.0 
-3.500000 -3.250000 0.0 
-3.250000 -3.250000 0.0 
-3.000000 -3.250000 0.0 
-2.750000 -3.250000 0.0 
-2.500000 -3.250000 0.0 
-2.250000 -3.250000 0.0 
-2.000000 -3.250000 0.0 
-1.750000 -3.250000 0.0 
-1.500000 -3.250000 0.0 
-1.250000 -3.250000 0.0 
-1.000000 -3.250000 0.0 
-0.750000 -3.250000 0.0 
-0.500000 -3.250000 0.0 
-0.250000 -3.250000 0.0 
0.000000 -3.250000 0.0 
0.250000 -3.250000 0.0 
0.500000 -3.250000 0.0 
0.750000 -3.250000 0.0 
1.000000 -3.250000 0.0 
1.250000 -3.250000 0.0 
1.500000 -3.250000 0.0 
1.750000 -3.250000 0.0 
2.000000 -3.250000 0.0 
2.250000 -3.250000 0.0 
2.500000 -3.250000 0.0 
2.750000 -3.250000 0.0 
3.000000 -3.250000 0.0 
3.250000 -3.250000 0.0 
3.500000 -3.250000 0.0 
3.750000 -3.250000 0.0 
4.000000 -3.250000 0.0 
-4.000000 -3.000000 0.0 
-3.750000 -3.000000 0.0 
-3.500000 -3.000000 0.0 
-3.250000 -3.000000 0.0 
-3.000000 -3.000000 0.0 
-2.750000 -3.000000 0.0 
-2.500000 -3.000000 0.0 
-2.250000 -3.000000 0.0 
-2.000000 -3.000000 0.0 
-1.750000 -3.000000 0.0 
-1.500000 -3.000000 0.0 
-1.250000 -3.000000 0.0 
-1.000000 -3.000000 0.0 
-0.750000 -3.000000 0.0 
-0.500000 -3.000000 0.0 
-0.250000 -3.000000 0.0 
0.000000 -3.000000 0.0 
0.250000 -3.000000 0.0 
0.500000 -3.000000 0.0 
0.750000 -3.000000 0.0 
1.000000 -3.000000 0.0 
1.250000 -3.000000 0.0 
1.500000 -3.000000 0.0 
1.750000 -3.000000 0.0 
2.000000 -3.000000 0.0 
2.250000 -3.000000 0.0 
2.500000 -3.000000 0.0 
2.750000 -3.000000 0.0 
3.000000 -3.000000 0.0 
3.250000 -3.000000 0.0 
3.500000 -3.000000 0.0 
3.750000 -3.000000 0.0 
4.000000 -3.000000 0.0 
-4.000000 -2.750000 0.0 
-3.750000 -2.750000 0.0 
-3.500000 -2.750000 0.0 
-3.250000 -2.750000 0.0 
-3.000000 -2.750000 0.0 
-2.750000 -2.750000 0.0 
-2.500000 -2.750000 0.0 
-2.250000 -2.750000 0.0 
-2.000000 -2.750000 0.0 
-1.750000 -2.750000 0.0 
-1.500000 -2.750000 0.0 
-1.250000 -2.750000 0.0 
-1.000000 -2.750000 0.0 
-0.750000 -2.750000 0.0 
-0.500000 -2.750000 0.0 
-0.250000 -2.750000 0.0 
0.000000 -2.750000 0.0 
0.250000 -2.750000 0.0 
0.500000 -2.750000 0.0 
0.750000 -2.750000 0.0 
1.000000 -2.750000 0.0 
1.250000 -2.750000 0.0 
1.500000 -2.750000 0.0 
1.750000 -2.750000 0.0 
2.000000 -2.750000 0.0 
2.250000 -2.750000 0.0 
2.500000 -2.750000 0.0 
2.750000 -2.750000 0.0 
3.000000 -2.750000 0.0 
3.250000 -2.750000 0.0 
3.500000 -2.750000 0.0 
3.750000 -2.750000 0.0 
4.000000 -2.750000 0.0 
-4.000000 -2.500000 0.0 
-3.750000 -2.500000 0.0 
-3.500000 -2.500000 0.0 
-3.250000 -2.500000 0.0 
-3.000000 -2.500000 0.0 
-2.750000 -2.500000 0.0 
-2.500000 -2.500000 0.0 
-2.250000 -2.500000 0.0 
-2.000000 -2.500000 0.0 
-1.750000 -2.500000 0.0 
-1.500000 -2.500000 0.0 
-1.250000 -2.500000 0.0 
-1.000000 -2.500000 0.0 
-0.750000 -2.500000 0.0 
-0.500000 -2.500000 0.0 
-0.250000 -2.500000 0.0 
0.000000 -2.500000 0.0 
0.250000 -2.500000 0.0 
0.500000 -2.500000 0.0 
0.750000 -2.500000 0.0 
1.000000 -2.500000 0.0 
1.250000 -2.500000 0.0 
1.500000 -2.500000 0.0 
1.750000 -2.500000 0.0 
2.000000 -2.500000 0.0 
2.250000 -2.500000 0.0 
2.500000 -2.500000 0.0 
2.750000 -2.500000 0.0 
3.000000 -2.500000 0.0 
3.250000 -2.500000 0.0 
3.500000 -2.500000 0.0 
3.750000 -2.500000 0.0 
4.000000 -2.500000 0.0 
-4.000000 -2.250000 0.0 
-3.750000 -2.250000 0.0 
-3.500000 -2.250000 0.0 
-3.250000 -2.250000 0.0 
-3.000000 -2.250000 0.0 
-2.750000 -2.250000 0.0 
-2.500000 -2.250000 0.0 
-2.250000 -2.250000 0.0 
-2.000000 -2.250000 0.0 
-1.750000 -2.250000 0.0 
-1.500000 -2.250000 0.0 
-1.250000 -2.250000 0.0 
-1.000000 -2.250000 0.0 
-0.750000 -2.250000 0.0 
-0.500000 -2.250000 0.0 
-0.250000 -2.250000 0.0 
0.000000 -2.250000 0.0 
0.250000 -2.250000 0.0 
0.500000 -2.250000 0.0 
0.750000 -2.250000 0.0 
1.000000 -2.250000 0.0 
1.250000 -2.250000 0.0 
1.500000 -2.250000 0.0 
1.750000 -2.250000 0.0 
2.000000 -2.250000 0.0 
2.250000 -2.250000 0.0 
2.500000 -2.250000 0.0 
2.750000 -2.250000 0.0 
3.000000 -2.250000 0.0 
3.250000 -2.250000 0.0 
3.500000 -2.250000 0.0 
3.750000 -2.250000 0.0 
4.000000 -2.250000 0.0 
-4.000000 -2.000000 0.0 
-3.750000 -2.000000 0.0 
-3.500000 -2.000000 0.0 
-3.250000 -2.000000 0.0 
-3.000000 -2.000000 0.0 
-2.750000 -2.000000 0.0 
-2.500000 -2.000000 0.0 
-2.250000 -2.000000 0.0 
-2.000000 -2.000000 0.0 
-1.750000 -2.000000 0.0 
-1.500000 -2.000000 0.0 
-1.250000 -2.000000 0.0 
-1.000000 -2.000000 0.0 
-0.750000 -2.000000 0.0 
-0.500000 -2.000000 0.0 
-0.250000 -2.000000 0.0 
0.000000 -2.000000 0.0 
0.250000 -2.000000 0.0 
0.500000 -2.000000 0.0 
0.750000 -2.000000 0.0 
1.000000 -2.000000 0.0 
1.250000 -2.000000 0.0 
1.500000 -2.000000 0.0 
1.750000 -2.000000 0.0 
2.000000 -2.000000 0.0 
2.250000 -2.000000 0.0 
2.500000 -2.000000 0.0 
2.750000 -2.000000 0.0 
3.000000 -2.000000 0.0 
3.250000 -2.000000 0.0 
3.500000 -2.000000 0.0 
3.750000 -2.000000 0.0 
4.000000 -2.000000 0.0 
-4.000000 -1.750000 0.0 
-3.750000 -1.750000 0.0 
-3.500000 -1.750000 0.0 
-3.250000 -1.750000 0.0 
-3.000000 -1.750000 0.0 
-2.750000 -1.750000 0.0 
-2.500000 -1.750000 0.0 
-2.250000 -1.750000 0.0 
-2.000000 -1.750000 0.0 
-1.750000 -1.750000 0.0 
-1.500000 -1.750000 0.0 
-1.250000 -1.750000 0.0 
-1.000000 -1.750000 0.0 
-0.750000 -1.750000 0.0 
-0.500000 -1.750000 0.0 
-0.250000 -1.750000 0.0 
0.000000 -1.750000 0.0 
0.250000 -1.750000 0.0 
0.500000 -1.750000 0.0 
0.750000 -1.750000 0.0 
1.000000 -1.750000 0.0 
1.250000 -1.750000 0.0 
1.500000 -1.750000 0.0 
1.750000 -1.750000 0.0 
2.000000 -1.750000 0.0 
2.250000 -1.750000 0.0 
2.500000 -1.750000 0.0 
2.750000 -1.750000 0.0 
3.000000 -1.750000 0.0 
3.250000 -1.750000 0.0 
3.500000 -1.750000 0.0 
3.750000 -1.750000 0.0 
4.000000 -1.750000 0.0 
-4.000000 -1.500000 0.0 
-3.750000 -1.500000 0.0 
-3.500000 -1.500000 0.0 
-3.250000 -1.500000 0.0 
-3.000000 -1.500000 0.0 
-2.750000 -1.500000 0.0 
-2.500000 -1.500000 0.0 
-2.250000 -1.500000 0.0 
-2.000000 -1.500000 0.0 
-1.750000 -1.500000 0.0 
-1.500000 -1.500000 0.0 
-1.250000 -1.500000 0.0 
-1.000000 -1.500000 0.0 
-0.750000 -1.500000 0.0 
-0.500000 -1.500000 0.0 
-0.250000 -1.500000 0.0 
0.000000 -1.500000 0.0 
0.250000 -1.500000 0.0 
0.500000 -1.500000 0.0 
0.750000 -1.500000 0.0 
1.000000 -1.500000 0.0 
1.250000 -1.500000 0.0 
1.500000 -1.500000 0.0 
1.750000 -1.500000 0.0 
2.000000 -1.500000 0.0 
2.250000 -1.500000 0.0 
2.500000 -1.500000 0.0 
2.750000 -1.500000 0.0 
3.000000 -1.500000 0.0 
3.250000 -1.500000 0.0 
3.500000 -1.500000 0.0 
3.750000 -1.500000 0.0 
4.000000 -1.500000 0.0 
-4.000000 -1.250000 0.0 
-3.750000 -1.250000 0.0 
-3.500000 -1.250000 0.0 
-3.250000 -1.250000 0.0 
-3.000000 -1.250000 0.0 
-2.750000 -1.250000 0.0 
-2.500000 -1.250000 0.0 
-2.250000 -1.250000 0.0 
-2.000000 -1.250000 0.0 
-1.750000 -1.250000 0.0 
-1.500000 -1.250000 0.0 
-1.250000 -1.250000 0.0 
-1.000000 -1.250000 0.0 
-0.750000 -1.250000 0.0 
-0.500000 -1.250000 0.0 
-0.250000 -1.250000 0.0 
0.000000 -1.250000 0.0 
0.250000 -1.250000 0.0 
0.500000 -1.250000 0.0 
0.750000 -1.250000 0.0 
1.000000 -1.250000 0.0 
1.250000 -1.250000 0.0 
1.500000 -1.250000 0.0 
1.750000 -1.250000 0.0 
2.000000 -1.250000 0.0 
2.250000 -1.250000 0.0 
2.500000 -1.250000 0.0 
2.750000 -1.250000 0.0 
3.000000 -1.250000 0.0 
3.250000 -1.250000 0.0 
3.500000 -1.250000 0.0 
3.750000 -1.250000 0.0 
4.000000 -1.250000 0.0 
-4.000000 -1.000000 0.0 
-3.750000 -1.000000 0.0 
-3.500000 -1.000000 0.0 
[...]
<PointData  Vectors="sigma"> 
<DataArray  type="Float64"  Name="sigma" NumberOfComponents="4" format="ascii"> 
0.00525914   2.43166   0.00705052   2.42906   
0.00764109   2.02384   0.0046652   2.02005   
0.0318546   1.60443   -0.00413566   1.58875   
0.0758445   1.2085   0.0121859   1.17261   
0.145028   0.831138   0.00585838   0.769018   
0.228779   0.508212   -0.0108303   0.441252   
0.300184   0.243753   0.00917827   0.276781   
0.328388   0.119884   -0.0242512   0.290873   
0.298232   0.089034   0.0220795   0.267916   
0.214497   0.239438   -0.017315   0.229957   
0.0979596   0.456836   0.00547354   0.416693   
-0.0327448   0.755752   0.000968621   0.772646   
-0.163288   1.04174   -0.00307406   1.13226   
-0.285531   1.3309   -0.00196895   1.49428   
-0.397299   1.5789   0.000587634   1.81055   
-0.492171   1.76007   -0.000199551   2.05094   
-0.55843   1.85393   -0.000532829   2.18728   
-0.574314   1.8352   0.00017328   2.17985   
-0.522073   1.70917   -0.00572831   2.02144   
-0.397429   1.48609   -0.0262471   1.7202   
-0.218384   1.14644   -0.006848   1.26985   
-0.0223053   0.76532   0.0178122   0.777326   
0.147811   0.43752   -0.0180941   0.386761   
0.265448   0.149244   0.0153507   0.232006   
0.324999   0.00789389   -0.0138351   0.322017   
0.334611   0.0296904   0.013004   0.321587   
0.302984   0.189826   -0.00144165   0.265189   
0.242065   0.458209   0.00407866   0.397095   
0.170492   0.815699   -0.00423595   0.745262   
0.103945   1.22001   0.000746562   1.1715   
0.0510179   1.65384   -0.000341466   1.62893   
0.0146062   2.08739   -1.99965e-05   2.08013   
-0.000572621   2.50758   -0.000141737   2.50786   
0.00493354   2.43651   0.00421639   2.43406   
0.00182152   2.02729   -0.0120069   2.02649   
0.0145744   1.61939   -0.029054   1.61294   
0.0489503   1.22519   -0.0504836   1.20464   
0.121899   0.837873   -0.0767143   0.795242   
0.194779   0.500858   -0.0852593   0.461572   
0.267807   0.222056   -0.0522338   0.264095   
0.283862   0.0809308   -0.0043297   0.253398   
0.252773   0.0737051   0.0638655   0.250863   
0.185792   0.213702   0.0947751   0.259673   
0.0738065   0.459687   0.122951   0.477685   
-0.0374325   0.747719   0.129794   0.799383   
-0.159619   1.0496   0.122656   1.1575   
-0.272674   1.33725   0.113006   1.50517   
-0.373085   1.58581   0.101694   1.81015   
-0.461197   1.77407   0.0823425   2.04904   
-0.526828   1.87761   0.0460501   2.19055   
-0.550009   1.87098   -0.0129835   2.19833   
-0.500788   1.74042   -0.0925008   2.04379   
-0.381803   1.49905   -0.167735   1.74633   
-0.213145   1.15991   -0.196621   1.3244   
-0.010667   0.755642   -0.181641   0.823498   
0.136097   0.400317   -0.142696   0.430559   
0.224414   0.124587   -0.0751598   0.234247   
0.270324   -0.0146487   -0.0346433   0.284341   
0.278786   0.00908517   0.0127031   0.275237   
0.261965   0.169687   0.0473797   0.24434   
0.206575   0.453721   0.0684664   0.41094   
0.143367   0.817411   0.0673217   0.764933   
0.0844084   1.22898   0.05723   1.19315   
0.0415635   1.66065   0.0424878   1.64191   
0.0115637   2.09814   0.0251674   2.09283   
3.37361e-05   2.52382   -0.00012912   2.52381   
-0.00637112   2.44871   -0.00552948   2.45192   
-0.0179767   2.04189   -0.00452158   2.05096   
-0.0344004   1.66158   -0.0387207   1.68038   
-0.0106498   1.26581   -0.116309   1.28703   
0.0311257   0.889985   -0.16017   0.917772   
0.111765   0.46696   -0.143771   0.490269   
0.144546   0.162277   -0.0950595   0.225565   
0.145452   -0.0338614   0.0458056   0.183092   
0.110485   0.0168377   0.0860194   0.181186   
0.0694558   0.17874   0.17888   0.346918   
0.0353614   0.42535   0.213453   0.551198   
-0.0613965   0.74664   0.233277   0.877688   
-0.147946   1.06907   0.232971   1.21893   
-0.228319   1.35336   0.208521   1.52419   
-0.303077   1.60484   0.184249   1.80433   
-0.36699   1.80835   0.153644   2.03452   
-0.426126   1.94234   0.0984812   2.19341   
-0.465038   1.97354   -0.00854692   2.24257   
-0.454998   1.85534   -0.15231   2.13613   
-0.33665   1.5511   -0.278185   1.80931   
-0.133526   1.13301   -0.368983   1.36428   
0.00693582   0.721492   -0.358945   0.9498   
0.0886801   0.291591   -0.203799   0.437759   
0.0942982   0.0502346   -0.114814   0.215   
0.0835834   -0.0531809   -0.0415434   0.139417   
0.116993   -0.0640793   -0.0188327   0.16234   
0.124564   0.116862   0.0707649   0.17216   
0.101843   0.436493   0.116189   0.443784   
0.0621671   0.831086   0.12282   0.829552   
0.0341011   1.24789   0.0967434   1.24254   
0.0114561   1.68329   0.0684696   1.68177   
0.00293994   2.12462   0.0396611   2.12426   
-0.000345889   2.56745   7.29765e-05   2.56762   
0.0123219   2.40038   0.00747885   2.39428   
-0.055351   2.06367   0.0533095   2.09394   
-0.12674   1.7287   -0.0244634   1.79593   
-0.119288   1.36207   -0.115525   1.43944   
-0.0250492   0.842611   -0.185305   0.913642   
-0.0272686   0.460822   -0.211611   0.600003   
-0.0722438   0.00377008   -0.0462183   0.109152   
-0.180331   -0.0570302   -0.00112046   0.159659   
-0.194949   -0.0370009   0.139849   0.301387   
-0.0925436   0.0745616   0.107868   0.236497   
-0.0601322   0.385654   0.258014   0.612576   
-0.0545083   0.743071   0.312811   0.942965   
-0.112656   1.06949   0.280413   1.22999   
-0.166592   1.38426   0.266828   1.54536   
-0.191782   1.63505   0.23025   1.78404   
-0.21081   1.84624   0.198292   1.99003   
-0.240113   2.02142   0.1467   2.1665   
-0.2901   2.13445   0.0278703   2.29381   
-0.302889   2.08044   -0.21934   2.27913   
-0.206517   1.81312   -0.569957   2.16311   
-0.0457249   1.24815   -0.632147   1.67806   
0.0666893   0.509387   -0.357812   0.783607   
-0.034929   0.150025   -0.20405   0.392271   
-0.182064   -0.0210974   -0.0260519   0.17829   
-0.246836   -0.0614964   -0.0682985   0.252041   
-0.220516   -0.0819289   -0.0195968   0.196023   
-0.111456   0.0223251   0.0440272   0.145686   
-0.0593593   0.421146   0.139658   0.514197   
-0.0438082   0.83793   0.123043   0.886664   
-0.0486262   1.28618   0.111386   1.32529   
-0.0349276   1.7152   0.0669151   1.7368   
-0.0132462   2.15813   0.0323329   2.16551   
0.00170436   2.61585   0.000634526   2.615   
-0.00928166   2.18691   -0.0120254   2.19166   
-0.093863   2.06743   0.167172   2.13565   
-0.219158   1.93157   0.0371628   2.05096   
-0.157219   1.47435   -0.314082   1.65111   
-0.109244   1.0079   -0.323518   1.20495   
-0.0742842   0.230687   -0.0687562   0.300089   
-0.543578   -0.136742   0.250489   0.654279   
-0.878874   -0.412819   0.423306   1.05716   
-0.572181   0.0869768   -0.12389   0.65633   
-0.423623   0.0782696   0.116489   0.509361   
-0.155197   0.177123   0.0851686   0.323587   
0.00857652   0.704301   0.323256   0.896413   
-0.0451235   1.13113   0.38061   1.32933   
-0.0576248   1.42807   0.287677   1.54054   
-0.0561485   1.67455   0.223226   1.74665   
-0.0132409   1.87671   0.185345   1.91053   
0.0198546   2.08012   0.162334   2.08927   
0.0384205   2.29284   0.0679554   2.27692   
-0.0607189   2.43372   -0.144231   2.47727   
0.0746319   1.92947   -0.529446   2.10365   
0.319666   0.652283   -0.462901   0.980805   
0.0932166   0.280661   -0.329719   0.622448   
-0.45365   -0.105174   0.251155   0.598652   
-0.649039   -0.0946609   0.0183025   0.608094   
-0.583902   0.0968555   0.0680023   0.648652   
-0.870941   -0.280285   -0.297496   0.926551   
-0.605433   -0.206187   -0.321624   0.771074   
-0.157965   0.332936   0.0705133   0.450897   
-0.157037   0.851037   0.132784   0.967194   
-0.123579   1.32074   0.103442   1.3982   
-0.105713   1.76869   0.0251661   1.82437   
-0.0368242   2.17936   -0.00849081   2.19806   
0.00170257   2.63022   0.00113523   2.62937   
0.00200793   1.73118   0.0213735   1.73057   
-0.0427625   2.02093   0.313026   2.11338   
-0.209274   2.27352   0.131266   2.39587   
-0.144733   1.81102   -0.26793   1.94376   
0.0768705   0.145172   -0.0776791   0.184192   
-0.161104   0.162506   -0.0524927   0.294634   
-0.390309   -0.78802   0.866961   1.64943   
-2.17076   -0.263706   3.63871   6.62796   
-3.13407   -0.785455   -1.00918   3.3216   
-0.599409   -2.94114   -5.05883   9.16634   
0.622959   0.062547   0.2025   0.68996   
0.197155   0.489785   0.336613   0.72258   
0.107459   1.12621   0.363129   1.24678   
0.0489486   1.55635   0.266284   1.60036   
0.113255   1.72899   0.190906   1.70756   
0.174706   1.91654   0.115416   1.84629   
0.284193   2.11332   0.0789654   1.99123   
0   0   0   0   
0   0   0   0   
0   0   0   0   
0   0   0   0   
0   0   0   0   
NaN   NaN   NaN   NaN   
NaN   NaN   NaN   NaN   
NaN   NaN   NaN   NaN   
-2.0517   -3.58022   -5.51175   10.0409   
-0.0576009   -0.638343   -0.439905   0.977026   
-0.181024   0.0418077   -0.0807287   0.248268   
-0.163028   0.812946   0.120735   0.929367   
-0.215434   1.4341   0.0834278   1.55977   
-0.166906   1.845   -0.0282548   1.93448   
-0.0720693   2.18308   -0.099022   2.2266   
-0.00119529   2.53619   -0.00303637   2.53679   
0   0   0   0   
0   0   0   0   
0   0   0   0   
0   0   0   0   
0   0   0   0   
0.177718   -0.698393   0.849387   1.67566   
0.536599   3.98033   3.66536   7.36884   
-3.89122   1.56438   -0.0293369   4.86609   
-9.28754   -0.159213   -2.87864   10.4721   
-2.19305   -2.07187   -1.94384   3.98673   
3.92116   -6.98182   -1.78732   10.0539   
0.981191   -0.168626   0.570472   1.46046   
0.516981   1.75377   0.852788   2.14897   
0.30754   1.63214   0.264535   1.57049   
0.209794   1.8253   0.166938   1.75396   
0.295439   2.01191   -0.00609257   1.8817   
0.429057   2.20541   -0.0916432   2.03147   
0.789252   2.46222   -0.302066   2.23961   
0   0   0   0   
0   0   0   0   
0   0   0   0   
0   0   0   0   
0   0   0   0   
0   0   0   0   
0   0   0   0   
-3.52129   -1.14342   -1.32197   3.86308   
2.16549   -5.59687   0.543623   7.00149   
-0.105318   -0.735154   -0.102969   0.711285   
0.119125   0.895926   0.362055   1.05043   
-0.177979   1.53395   0.172735   1.65747   
-0.226516   2.03279   -0.12414   2.16569   
-0.08726   2.15484   -0.227258   2.23471   
0.00250199   2.24655   -0.00104756   2.2453   
-0.0070595   0.809978   -0.0965819   0.830552   
0   0   0   0   
0   0   0   0   
0   0   0   0   
0   0   0   0   
0   0   0   0   
0   0   0   0   
0   0   0   0   
NaN   NaN   NaN   NaN   
NaN   NaN   NaN   NaN   
NaN   NaN   NaN   NaN   
NaN   NaN   NaN   NaN   
NaN   NaN   NaN   NaN   
0.182935   1.87425   0.459105   1.95851   
0.234964   2.06666   0.201531   1.99061   
0.283854   2.22695   -0.138101   2.11304   
0.506142   2.33655   -0.346784   2.2122   
0.612743   2.52846   -0.380591   2.37777   
0.580984   3.05168   -0.364676   2.87685   
0   0   0   0   
0   0   0   0   
0   0   0   0   
0   0   0   0   
0   0   0   0   
0   0   0   0   
0   0   0   0   
0   0   0   0   
0   0   0   0   
NaN   NaN   NaN   NaN   
0.0204414   2.13161   0.436134   2.25194   
-0.0928107   2.34324   -0.223454   2.42212   
-0.0153999   2.06772   -0.328276   2.15194   
0.00264808   1.7335   0.0104559   1.73227   
-0.00471201   0.903522   0.0854635   0.917902   
0.154457   1.89883   -0.159103   1.84718   
0   0   0   0   
0   0   0   0   
0   0   0   0   
0   0   0   0   
0   0   0   0   
0   0   0   0   
0   0   0   0   
0   0   0   0   
0   0   0   0   
NaN   NaN   NaN   NaN   
NaN   NaN   NaN   NaN   
-0.0778981   1.85982   0.333518   1.98585   
0.049324   2.48161   -0.0135837   2.45743   
0.381244   2.47809   -0.338699   2.38447   
0.440987   2.40704   -0.423366   2.33764   
0.421512   2.4923   -0.373965   2.39964   
0.120727   2.52878   -0.0407346   2.47163   
0.0372369   2.03126   0.517435   2.2034   
NaN   NaN   NaN   NaN   
0   0   0   0   
0   0   0   0   
0   0   0   0   
0   0   0   0   
0   0   0   0   
0   0   0   0   
0   0   0   0   
0   0   0   0   
0   0   0   0   
0.280347   2.73254   -0.191603   2.62477   
0.103692   1.97916   -0.25307   1.97857   
0.0550845   1.17673   0.0219454   1.15081   
0.0164715   1.39729   -0.0401315   1.39086   
0.0339304   2.00614   -0.354489   2.08199   
0.167041   2.52207   -0.170674   2.46066   
0.373485   3.26092   1.03606   3.57428   
0   0   0   0   
0   0   0   0   
0   0   0   0   
0   0   0   0   
0   0   0   0   
0   0   0   0   
0   0   0   0   
0   0   0   0   
0   0   0   0   
0.465121   3.30095   0.967376   3.51919   
0.448718   2.98158   -0.305735   2.83438   
0.536937   2.54241   -0.430817   2.438   
0.470682   2.35693   -0.371438   2.25415   
0.252655   2.25514   -0.173971   2.16113   
0.155245   2.10111   0.155903   2.04585   
0.105412   1.71639   0.443101   1.83444   
NaN   NaN   NaN   NaN   
NaN   NaN   NaN   NaN   
NaN   NaN   NaN   NaN   
0   0   0   0   
0   0   0   0   
0   0   0   0   
0   0   0   0   
0   0   0   0   
0   0   0   0   
0   0   0   0   
0   0   0   0   
0   0   0   0   
-0.099688   0.879844   0.0447248   0.936896   
-0.00663468   1.99773   0.0261053   2.00157   
-0.0624707   2.10125   -0.309974   2.19969   
-0.252511   2.19257   -0.254028   2.37031   
-0.166514   1.60406   0.139592   1.71064   
-0.0746104   0.460891   0.218884   0.629368   
0.243499   -0.393865   -0.261722   0.718208   
0   0   0   0   
0   0   0   0   
0   0   0   0   
0   0   0   0   
0   0   0   0   
0   0   0   0   
0   0   0   0   
0   0   0   0   
0   0   0   0   
0.759108   2.47527   -0.308564   2.26049   
0.37246   2.22014   -0.135679   2.07269   
0.229066   2.03642   -0.0239265   1.93254   
0.132218   1.81471   0.179388   1.77968   
0.230448   1.58898   0.304313   1.57785   
0.456553   1.66234   0.772627   2.00093   
0.855828   -0.298094   0.57492   1.43806   
4.46583   -4.85303   -4.39419   11.0948   
1.23561   11.6588   -19.5258   35.5924   
NaN   NaN   NaN   NaN   
0   0   0   0   
0   0   0   0   
0   0   0   0   
0   0   0   0   
0   0   0   0   
0   0   0   0   
0   0   0   0   
0   0   0   0   
0   0   0   0   
-0.094222   2.18341   -0.167269   2.25074   
-0.218879   1.92255   -0.0526513   2.04284   
-0.273349   1.52503   0.192958   1.71143   
-0.17665   0.76151   0.181205   0.918766   
-0.254032   0.010031   -0.156925   0.375576   
0.0147744   -0.577318   -0.470562   1.00316   
NaN   NaN   NaN   NaN   
0   0   0   0   
0   0   0   0   
0   0   0   0   
0   0   0   0   
0   0   0   0   
0   0   0   0   
0   0   0   0   
0   0   0   0   
0   0   0   0   
0.0927681   1.92203   0.114193   1.88776   
0.0320221   1.70953   0.18498   1.72378   
-0.0189432   1.48158   0.241891   1.54888   
0.0474951   1.03856   0.318814   1.15605   
0.120623   0.42427   0.273511   0.606468   
0.541071   -0.0811448   0.144456   0.637063   
-0.370361   -0.785553   -8.57566   14.8691   
NaN   NaN   NaN   NaN   
NaN   NaN   NaN   NaN   
NaN   NaN   NaN   NaN   
0   0   0   0   
0   0   0   0   
0   0   0   0   
0   0   0   0   
0   0   0   0   
0   0   0   0   
0   0   0   0   
0   0   0   0   
0   0   0   0   
-0.163096   1.30394   0.0939063   1.40213   
-0.175563   0.833549   0.132281   0.96149   
-0.188678   0.300173   0.0762449   0.446966   
-0.691715   -0.212506   -0.382269   0.902787   
NaN   NaN   NaN   NaN   
NaN   NaN   NaN   NaN   
NaN   NaN   NaN   NaN   
0   0   0   0   
0   0   0   0   
0   0   0   0   
0   0   0   0   
0   0   0   0   
0   0   0   0   
0   0   0   0   
0   0   0   0   
0   0   0   0   
-0.135838   1.40344   0.277247   1.5522   
-0.130449   1.0906   0.335059   1.29826   
-0.071061   0.647966   0.264232   0.82487   
-0.29546   0.112694   -0.0126607   0.365751   
-0.568519   0.0268301   0.0235153   0.58382   
-0.545706   0.0255789   -0.0144753   0.559496   
-0.76315   -0.11327   0.0726616   0.724311   
-0.618404   -0.159802   0.37665   0.857166   
-0.204281   0.201547   -0.0944954   0.387701   
-0.0683674   0.282472   -0.218527   0.497029   
-0.205482   1.51621   -0.20998   1.66882   
0   0   0   0   
0   0   0   0   
0   0   0   0   
0   0   0   0   
0   0   0   0   
0   0   0   0   
0   0   0   0   
-0.0758268   0.82342   0.138503   0.896524   
-0.101162   0.41011   0.149954   0.53607   
-0.181435   0.00499595   0.0576949   0.209371   
-0.316268   -0.0897362   -0.00380233   0.282384   
-0.360711   -0.0432163   -0.100378   0.382909   
-0.363555   0.0384614   0.0247696   0.38662   
-0.296541   0.0553544   -0.203616   0.48145   
-0.155523   0.253338   -0.227893   0.532516   
-0.2195   1.32339   -0.58364   1.76407   
0   0   0   0   
0   0   0   0   
0   0   0   0   
0   0   0   0   
0   0   0   0   
0   0   0   0   
0   0   0   0   
-0.201458   1.04022   0.24294   1.22852   
-0.151006   0.703622   0.266039   0.914587   
-0.139954   0.324727   0.189373   0.527321   
-0.175089   0.0337488   0.0633262   0.223013   
-0.22446   -0.024983   0.0481636   0.228819   
-0.220584   -0.0870543   0.0463432   0.208509   
-0.111001   0.0166478   -0.0377256   0.136806   
0.00144823   0.264292   -0.101695   0.31701   
-0.0492706   0.882704   -0.278643   1.0286   
-0.158703   1.46809   -0.29643   1.63617   
-0.171658   1.85831   -0.00800462   1.94987   
-0.082702   2.14679   0.123569   2.19975   
0.00995501   2.40559   0.00196188   2.40063   
0   0   0   0   
0   0   0   0   
0   0   0   0   
0   0   0   0   
0   0   0   0   
0.0622949   0.416042   0.150726   0.468198   
0.0616578   0.101543   0.108911   0.208414   
0.0293098   -0.065392   0.0141904   0.087498   
-0.0551328   -0.0356398   -0.00111677   0.0484627   
-0.0730705   0.0658891   -0.0650494   0.164892   
-0.0708299   0.22808   -0.13503   0.357619   
-0.155442   0.706373   -0.41246   1.06925   
-0.279596   1.15599   -0.437178   1.52022   
-0.466515   1.60524   -0.274644   1.94154   
-0.570298   1.92887   -0.135976   2.28063   
-0.563458   2.03719   0.0191354   2.36994   
0   0   0   0   
0   0   0   0   
0   0   0   0   
0   0   0   0   
0   0   0   0   
-0.150748   0.71865   0.171505   0.857765   
-0.0485186   0.383057   0.14087   0.476661   
0.0106516   0.131228   0.0819344   0.189937   
0.0436918   -0.021097   0.0334014   0.0813806   
0.095408   -0.0469121   -0.00496381   0.125909   
0.12577   0.0761106   -0.0630531   0.154808   
0.11216   0.41024   -0.155074   0.454981   
0.0663719   0.776631   -0.16489   0.798486   
-0.0363712   1.24344   -0.0803184   1.26967   
-0.0851816   1.71709   -0.0127157   1.76136   
-0.0368095   2.12757   0.0334127   2.14699   
-0.00184029   2.55599   -0.00107247   2.55691   
0.00109856   2.55798   -0.00128693   2.55743   
0.011111   2.10552   0.0264044   2.10048   
0.0381128   1.64769   0.0506157   1.63132   
0.0743107   1.2022   0.0763738   1.17429   
0.1246   0.780876   0.10068   0.747265   
0.173856   0.422653   0.119466   0.422134   
0.208416   0.152364   0.110952   0.268007   
0.190966   0.00977598   0.0890555   0.241845   
0.149335   -0.000990608   0.0362372   0.162448   
0.0812843   0.126782   -0.00328803   0.111391   
-0.00300221   0.400316   -0.121146   0.453313   
-0.13252   0.732085   -0.178784   0.863955   
-0.341436   1.17473   -0.222242   1.43033   
-0.503602   1.54892   -0.202401   1.88566   
-0.604336   1.79444   -0.0943234   2.16711   
-0.648876   1.92378   0.0081716   2.31743   
-0.629944   1.92727   0.076631   2.31147   
-0.573893   1.819   0.107905   2.17186   
-0.493901   1.62533   0.107855   1.92958   
-0.39428   1.36668   0.0946769   1.60905   
-0.271657   1.06322   0.0729667   1.22843   
-0.139131   0.7441   0.0577594   0.828601   
-0.00611818   0.427389   0.0313268   0.433886   
0.108507   0.168378   0.00453025   0.148041   
0.190445   0.0101746   -0.016834   0.187843   
0.232955   0.000405897   -0.0415102   0.243604   
0.238555   0.146638   -0.073661   0.244352   
0.198509   0.411204   -0.0810966   0.382879   
0.111827   0.806338   -0.0773117   0.768406   
0.0419081   1.23079   -0.0662453   1.2158   
0.00509751   1.66568   -0.0188186   1.66345   
-0.00593803   2.12056   0.00409794   2.12354   
0.00176309   2.58625   0.000943737   2.58537   
-0.00056223   2.54119   0.00110504   2.54147   
0.0140671   2.09075   0.00268522   2.08375   
0.0474896   1.62707   0.0109031   1.60396   