<VTKFile type="UnstructuredGrid"  version="0.1"   > 
<UnstructuredGrid> 
<Piece  NumberOfPoints="  153" NumberOfCells=" 128"> 
<Points> 
<DataArray  type="Float64"  NumberOfComponents="3"  format="ascii" > 
-1.000000 0.000000 0.0 
-0.995955 0.089854 0.0 
-0.983305 0.181963 0.0 
-0.961399 0.275158 0.0 
-0.929788 0.368095 0.0 
-0.888284 0.459295 0.0 
-0.836996 0.547210 0.0 
-0.776353 0.630298 0.0 
-0.707107 0.707107 0.0 
-0.630298 0.776353 0.0 
-0.547210 0.836996 0.0 
-0.459295 0.888284 0.0 
-0.368095 0.929788 0.0 
-0.275158 0.961399 0.0 
-0.181963 0.983305 0.0 
-0.089854 0.995955 0.0 
0.000000 1.000000 0.0 
-1.375000 0.000000 0.0 
-1.378978 0.125832 0.0 
-1.369184 0.253930 0.0 
-1.344720 0.383015 0.0 
-1.304940 0.511669 0.0 
-1.249505 0.638373 0.0 
-1.178423 0.761557 0.0 
-1.092071 0.879663 0.0 
-0.991201 0.991201 0.0 
-0.879663 1.092071 0.0 
-0.761557 1.178423 0.0 
-0.638373 1.249505 0.0 
-0.511669 1.304940 0.0 
-0.383015 1.344720 0.0 
-0.253930 1.369184 0.0 
-0.125832 1.378978 0.0 
0.000000 1.375000 0.0 
-1.750000 0.000000 0.0 
-1.757297 0.181960 0.0 
-1.747648 0.361764 0.0 
-1.720236 0.537835 0.0 
-1.674484 0.708556 0.0 
-1.610084 0.872308 0.0 
-1.527029 1.027516 0.0 
-1.425627 1.172695 0.0 
-1.306498 1.306498 0.0 
-1.172695 1.425627 0.0 
-1.027516 1.527029 0.0 
-0.872308 1.610084 0.0 
-0.708556 1.674484 0.0 
-0.537835 1.720236 0.0 
-0.361764 1.747648 0.0 
-0.181960 1.757297 0.0 
0.000000 1.750000 0.0 
-2.125000 0.000000 0.0 
-2.132246 0.257996 0.0 
-2.121326 0.504694 0.0 
-2.091643 0.738314 0.0 
-2.042787 0.957146 0.0 
-1.974546 1.159578 0.0 
-1.886921 1.344140 0.0 
-1.780137 1.509527 0.0 
-1.654636 1.654636 0.0 
-1.509527 1.780137 0.0 
-1.344140 1.886921 0.0 
-1.159578 1.974546 0.0 
-0.957146 2.042787 0.0 
-0.738314 2.091643 0.0 
-0.504694 2.121326 0.0 
-0.257996 2.132246 0.0 
0.000000 2.125000 0.0 
-2.500000 0.000000 0.0 
-2.505103 0.353830 0.0 
-2.492659 0.682413 0.0 
-2.462312 0.984018 0.0 
-2.413822 1.257059 0.0 
-2.347071 1.500110 0.0 
-2.262069 1.711936 0.0 
-2.158956 1.891504 0.0 
-2.038003 2.038003 0.0 
-1.891504 2.158956 0.0 
-1.711936 2.262069 0.0 
-1.500110 2.347071 0.0 
-1.257059 2.413822 0.0 
-0.984018 2.462312 0.0 
-0.682413 2.492659 0.0 
-0.353830 2.505103 0.0 
0.000000 2.500000 0.0 
-2.875000 0.000000 0.0 
-2.877102 0.469485 0.0 
-2.863962 0.895051 0.0 
-2.835411 1.275306 0.0 
-2.791340 1.609016 0.0 
-2.731697 1.895114 0.0 
-2.656494 2.132709 0.0 
-2.565800 2.321093 0.0 
-2.459750 2.459750 0.0 
-2.321093 2.565800 0.0 
-2.132709 2.656494 0.0 
-1.895114 2.731697 0.0 
-1.609016 2.791340 0.0 
-1.275306 2.835411 0.0 
-0.895051 2.863962 0.0 
-0.469485 2.877102 0.0 
0.000000 2.875000 0.0 
-3.250000 0.000000 0.0 
-3.249454 0.605110 0.0 
-3.237475 1.143151 0.0 
-3.214009 1.613284 0.0 
-3.179021 2.014779 0.0 
-3.132496 2.347021 0.0 
-3.074441 2.609514 0.0 
-3.004880 2.801879 0.0 
-2.923859 2.923859 0.0 
-2.801879 3.004880 0.0 
-2.609514 3.074441 0.0 
-2.347021 3.132496 0.0 
-2.014779 3.179021 0.0 
-1.613284 3.214009 0.0 
-1.143151 3.237475 0.0 
-0.605110 3.249454 0.0 
0.000000 3.250000 0.0 
-3.625000 0.000000 0.0 
-3.623355 0.760980 0.0 
-3.615411 1.427674 0.0 
-3.601161 1.999807 0.0 
-3.580601 2.477144 0.0 
-3.553728 2.859492 0.0 
-3.520544 3.146695 0.0 
-3.481052 3.338642 0.0 
-3.435260 3.435260 0.0 
-3.338642 3.481052 0.0 
-3.146695 3.520544 0.0 
-2.859492 3.553728 0.0 
-2.477144 3.580601 0.0 
-1.999807 3.601161 0.0 
-1.427674 3.615411 0.0 
-0.760980 3.623355 0.0 
0.000000 3.625000 0.0 
-4.000000 0.000000 0.0 
-4.000000 0.937500 0.0 
-4.000000 1.750000 0.0 
-4.000000 2.437500 0.0 
-4.000000 3.000000 0.0 
-4.000000 3.437500 0.0 
-4.000000 3.750000 0.0 
-4.000000 3.937500 0.0 
-4.000000 4.000000 0.0 
-3.937500 4.000000 0.0 
-3.750000 4.000000 0.0 
-3.437500 4.000000 0.0 
-3.000000 4.000000 0.0 
-2.437500 4.000000 0.0 
-1.750000 4.000000 0.0 
-0.937500 4.000000 0.0 
0.000000 4.000000 0.0 
</DataArray> 
</Points> 
<Cells> 
<DataArray  type="Int32"  Name="connectivity"  format="ascii"> 
0 1 18 17 
1 2 19 18 
2 3 20 19 
3 4 21 20 
4 5 22 21 
5 6 23 22 
6 7 24 23 
7 8 25 24 
8 9 26 25 
9 10 27 26 
10 11 28 27 
11 12 29 28 
12 13 30 29 
13 14 31 30 
14 15 32 31 
15 16 33 32 
17 18 35 34 
18 19 36 35 
19 20 37 36 
20 21 38 37 
21 22 39 38 
22 23 40 39 
23 24 41 40 
24 25 42 41 
25 26 43 42 
26 27 44 43 
27 28 45 44 
28 29 46 45 
29 30 47 46 
30 31 48 47 
31 32 49 48 
32 33 50 49 
34 35 52 51 
35 36 53 52 
36 37 54 53 
37 38 55 54 
38 39 56 55 
39 40 57 56 
40 41 58 57 
41 42 59 58 
42 43 60 59 
43 44 61 60 
44 45 62 61 
45 46 63 62 
46 47 64 63 
47 48 65 64 
48 49 66 65 
49 50 67 66 
51 52 69 68 
52 53 70 69 
53 54 71 70 
54 55 72 71 
55 56 73 72 
56 57 74 73 
57 58 75 74 
58 59 76 75 
59 60 77 76 
60 61 78 77 
61 62 79 78 
62 63 80 79 
63 64 81 80 
64 65 82 81 
65 66 83 82 
66 67 84 83 
68 69 86 85 
69 70 87 86 
70 71 88 87 
71 72 89 88 
72 73 90 89 
73 74 91 90 
74 75 92 91 
75 76 93 92 
76 77 94 93 
77 78 95 94 
78 79 96 95 
79 80 97 96 
80 81 98 97 
81 82 99 98 
82 83 100 99 
83 84 101 100 
85 86 103 102 
86 87 104 103 
87 88 105 104 
88 89 106 105 
89 90 107 106 
90 91 108 107 
91 92 109 108 
92 93 110 109 
93 94 111 110 
94 95 112 111 
95 96 113 112 
96 97 114 113 
97 98 115 114 
98 99 116 115 
99 100 117 116 
100 101 118 117 
102 103 120 119 
103 104 121 120 
104 105 122 121 
105 106 123 122 
106 107 124 123 
107 108 125 124 
108 109 126 125 
109 110 127 126 
110 111 128 127 
111 112 129 128 
112 113 130 129 
113 114 131 130 
114 115 132 131 
115 116 133 132 
116 117 134 133 
117 118 135 134 
119 120 137 136 
120 121 138 137 
121 122 139 138 
122 123 140 139 
123 124 141 140 
124 125 142 141 
125 126 143 142 
126 127 144 143 
127 128 145 144 
128 129 146 145 
129 130 147 146 
130 131 148 147 
131 132 149 148 
132 133 150 149 
133 134 151 150 
134 135 152 151 
</DataArray> 
<DataArray  type="Int32"  Name="offsets"  format="ascii"> 
4 
8 
12 
16 
20 
24 
28 
32 
36 
40 
44 
48 
52 
56 
60 
64 
68 
72 
76 
80 
84 
88 
92 
96 
100 
104 
108 
112 
116 
120 
124 
128 
132 
136 
140 
144 
148 
152 
156 
160 
164 
168 
172 
176 
180 
184 
188 
192 
196 
200 
204 
208 
212 
216 
220 
224 
228 
232 
236 
240 
244 
248 
252 
256 
260 
264 
268 
272 
276 
280 
284 
288 
292 
296 
300 
304 
308 
312 
316 
320 
324 
328 
332 
336 
340 
344 
348 
352 
356 
360 
364 
368 
372 
376 
380 
384 
388 
392 
396 
400 
404 
408 
412 
416 
420 
424 
428 
432 
436 
440 
444 
448 
452 
456 
460 
464 
468 
472 
476 
480 
484 
488 
492 
496 
500 
504 
508 
512 
</DataArray> 
<DataArray  type="UInt8"  Name="types"  format="ascii"> 
9 
9 
9 
9 
9 
9 
9 
9 
9 
9 
9 
9 
9 
9 
9 
9 
9 
9 
9 
9 
9 
9 
9 
9 
9 
9 
9 
9 
9 
9 
9 
9 
9 
9 
9 
9 
9 
9 
9 
9 
9 
9 
9 
9 
9 
9 
9 
9 
9 
9 
9 
9 
9 
9 
9 
9 
9 
9 
9 
9 
9 
9 
9 
9 
9 
9 
9 
9 
9 
9 
9 
9 
9 
9 
9 
9 
9 
9 
9 
9 
9 
9 
9 
9 
9 
9 
9 
9 
9 
9 
9 
9 
9 
9 
9 
9 
9 
9 
9 
9 
9 
9 
9 
9 
9 
9 
9 
9 
9 
9 
9 
9 
9 
9 
9 
9 
9 
9 
9 
9 
9 
9 
9 
9 
9 
9 
9 
9 
</DataArray> 
</Cells> 
<PointData  Vectors="sigma"> 
<DataArray  type="Float64"  Name="sigma" NumberOfComponents="3" format="ascii"> 
-0.123169   -1.03104   -0.000825748   
-0.125337   -0.991847   -0.0502231   
-0.124079   -0.88609   -0.0862647   
-0.11326   -0.716614   -0.0951302   
-0.0812479   -0.49423   -0.0643707   
-0.0116897   -0.238959   0.014689   
0.115451   0.020585   0.143233   
0.320127   0.250327   0.310547   
0.616122   0.418952   0.492597   
0.993352   0.505242   0.650816   
1.42016   0.515247   0.751393   
1.85482   0.471793   0.776236   
2.2567   0.399931   0.722834   
2.59311   0.32232   0.60081   
2.84278   0.255729   0.426842   
2.99553   0.210594   0.220454   
3.0505   0.190127   0.00183265   
0.0694727   -0.14759   -0.000867168   
0.0977896   -0.143255   0.0979906   
0.16927   -0.152934   0.191229   
0.280864   -0.173746   0.268462   
0.426496   -0.198379   0.321579   
0.597624   -0.2169   0.345671   
0.784171   -0.219045   0.339715   
0.975063   -0.196702   0.306391   
1.15945   -0.145871   0.251371   
1.31953   -0.0704201   0.183532   
1.44215   0.0218417   0.115073   
1.52823   0.122532   0.0563714   
1.58375   0.222113   0.0145771   
1.61842   0.310538   -0.00766294   
1.64221   0.378782   -0.0125443   
1.66257   0.420255   -0.00622854   
1.68233   0.431756   0.00221308   
0.355081   0.00906656   0.00180992   
0.390138   0.00106407   0.10088   
0.466257   -0.0256324   0.184079   
0.572095   -0.0645697   0.24329   
0.696003   -0.107932   0.274683   
0.827149   -0.14743   0.277527   
0.955746   -0.175079   0.253642   
1.07314   -0.183533   0.207338   
1.17141   -0.167555   0.145213   
1.24359   -0.125504   0.0781973   
1.28909   -0.0620061   0.0174711   
1.31275   0.0157412   -0.029804   
1.32072   0.100053   -0.0592605   
1.3197   0.182454   -0.0691072   
1.31605   0.253916   -0.0599776   
1.31519   0.305124   -0.0351525   
1.32057   0.32765   -0.0012124   
0.525601   0.0425378   0.00193125   
0.560375   0.0286277   0.0961237   
0.638522   -0.00584999   0.165705   
0.737614   -0.0482446   0.204059   
0.840397   -0.0882001   0.21349   
0.935622   -0.118959   0.200227   
1.01745   -0.137246   0.171417   
1.08374   -0.142111   0.133271   
1.13515   -0.133643   0.0907311   
1.17314   -0.111842   0.0466154   
1.19908   -0.075883   0.00352534   
1.21263   -0.0254659   -0.0346948   
1.21471   0.0376373   -0.0632892   
1.20733   0.108713   -0.0769065   
1.19485   0.178838   -0.0710034   
1.18368   0.234525   -0.0440549   
1.18113   0.258263   -0.00124345   
0.643705   0.0471041   0.00251163   
0.679989   0.0300337   0.0880784   
0.757522   -0.00716427   0.142003   
0.844929   -0.0458552   0.161654   
0.924061   -0.0760678   0.156561   
0.98793   -0.0948297   0.137453   
1.03639   -0.103377   0.112198   
1.07216   -0.104227   0.0855071   
1.09874   -0.0984795   0.0597169   
1.12045   -0.0873629   0.0341264   
1.13705   -0.0692598   0.00679335   
1.1488   -0.0406912   -0.0209022   
1.15327   0.000433562   -0.0461684   
1.14889   0.0545274   -0.0635598   
1.13643   0.116663   -0.0652837   
1.12144   0.173029   -0.0441174   
1.115   0.19939   -0.00182147   
0.723563   0.044334   0.00278466   
0.760991   0.0245904   0.0803189   
0.836393   -0.0130462   0.120338   
0.911009   -0.045799   0.126098   
0.969831   -0.0661888   0.112982   
1.01148   -0.0756547   0.0930331   
1.03984   -0.0777227   0.0730849   
1.0586   -0.0758258   0.0553972   
1.07251   -0.0721523   0.0412543   
1.08348   -0.0667185   0.0270964   
1.09602   -0.0580354   0.010457   
1.10683   -0.0427578   -0.00879732   
1.11404   -0.0172299   -0.0297668   
1.11406   0.0220424   -0.0484711   
1.10437   0.074755   -0.0564879   
1.08811   0.129924   -0.0421298   
1.07892   0.157613   -0.00208737   
0.779535   0.040169   0.00270328   
0.819505   0.0179397   0.0729066   
0.890907   -0.0181513   0.10103   
0.951967   -0.0440222   0.0965809   
0.99449   -0.0566536   0.0796577   
1.0215   -0.0596034   0.0622177   
1.03702   -0.0583052   0.0476031   
1.04638   -0.0563058   0.0367399   
1.05131   -0.0526735   0.0284744   
1.06078   -0.0503203   0.0219084   
1.0678   -0.0471183   0.0124982   
1.07738   -0.039606   -0.000191152   
1.08594   -0.0247534   -0.0165223   
1.08981   0.0022952   -0.0345168   
1.08402   0.0451195   -0.0468416   
1.06815   0.0976032   -0.0391076   
1.05715   0.126718   -0.00238601   
0.817052   0.0352475   0.00106231   
0.863829   0.0117736   0.066813   
0.927499   -0.0210311   0.0838129   
0.97658   -0.0418726   0.0719408   
1.00824   -0.047149   0.0559099   
1.02382   -0.0464313   0.0414542   
1.0321   -0.0436401   0.0310092   
1.03592   -0.0401736   0.0237431   
1.04533   -0.0405821   0.0226097   
1.04013   -0.0383467   0.0185407   
1.04825   -0.036992   0.0133195   
1.05593   -0.0340783   0.00518556   
1.06498   -0.0260075   -0.00689608   
1.07155   -0.00831115   -0.0229002   
1.06963   0.0248555   -0.0377058   
1.05536   0.0733536   -0.0358328   
1.04317   0.103824   -0.00261804   
0.84183   0.0269214   -0.00284911   
0.900279   0.0108035   0.0632639   
0.948583   -0.0266087   0.0658177   
0.995545   -0.0362989   0.0547777   
1.01271   -0.0386687   0.0385752   
1.02271   -0.0363476   0.0272036   
1.02483   -0.0325645   0.0198767   
1.04151   -0.0360466   0.019626   
1.04363   -0.0294519   0.0157484   
1.04828   -0.0312452   0.0177353   
1.03317   -0.0284828   0.0121846   
1.04163   -0.028195   0.00797467   
1.04881   -0.02473   -0.000641697   
1.05719   -0.0131379   -0.0137574   
1.05868   0.0113787   -0.0293226   
1.04612   0.0547277   -0.0326881   
1.03421   0.0862665   -0.00280743   
</DataArray> 
<DataArray  type="Float64"  Name="U" NumberOfComponents="3" format="ascii"> 
-0.000029961422   0.000000000000   0.0
-0.000029841132   -0.000000890963   0.0
-0.000029462301   -0.000001801483   0.0
-0.000028806838   -0.000002723238   0.0
-0.000027861246   -0.000003645403   0.0
-0.000026619177   -0.000004554814   0.0
-0.000025082693   -0.000005436152   0.0
-0.000023263086   -0.000006272498   0.0
-0.000021180905   -0.000007045688   0.0
-0.000018868823   -0.000007739377   0.0
-0.000016369663   -0.000008343475   0.0
-0.000013730195   -0.000008852448   0.0
-0.000010998212   -0.000009263301   0.0
-0.000008219655   -0.000009575988   0.0
-0.000005436788   -0.000009792903   0.0
-0.000002686658   -0.000009918353   0.0
-0.000000000000   -0.000009956337   0.0
-0.000030523722   0.000000000000   0.0
-0.000030337181   -0.000000215245   0.0
-0.000029737701   -0.000000465536   0.0
-0.000028723133   -0.000000798350   0.0
-0.000027305520   -0.000001258246   0.0
-0.000025511149   -0.000001881639   0.0
-0.000023380895   -0.000002691176   0.0
-0.000020969860   -0.000003689968   0.0
-0.000018345395   -0.000004856827   0.0
-0.000015654629   -0.000006111945   0.0
-0.000013041502   -0.000007356286   0.0
-0.000010555535   -0.000008520516   0.0
-0.000008216019   -0.000009543679   0.0
-0.000006018125   -0.000010376439   0.0
-0.000003939273   -0.000010983421   0.0
-0.000001945938   -0.000011343879   0.0
-0.000000000000   -0.000011452527   0.0
-0.000031397679   0.000000000000   0.0
-0.000031182341   -0.000000193961   0.0
-0.000030464392   -0.000000447180   0.0
-0.000029300608   -0.000000806418   0.0
-0.000027754337   -0.000001303019   0.0
-0.000025888205   -0.000001954206   0.0
-0.000023761525   -0.000002765068   0.0
-0.000021430202   -0.000003729646   0.0
-0.000018948310   -0.000004830536   0.0
-0.000016409936   -0.000006014818   0.0
-0.000013898903   -0.000007214733   0.0
-0.000011440927   -0.000008377395   0.0
-0.000009048619   -0.000009449178   0.0
-0.000006723538   -0.000010374630   0.0
-0.000004456228   -0.000011096966   0.0
-0.000002225725   -0.000011560641   0.0
-0.000000000000   -0.000011717772   0.0
-0.000033019931   0.000000000000   0.0
-0.000032761535   -0.000000327448   0.0
-0.000031915041   -0.000000738109   0.0
-0.000030626223   -0.000001276032   0.0
-0.000029025825   -0.000001944964   0.0
-0.000027210373   -0.000002725517   0.0
-0.000025242142   -0.000003589668   0.0
-0.000023157018   -0.000004510171   0.0
-0.000020973601   -0.000005465014   0.0
-0.000018676886   -0.000006450050   0.0
-0.000016252177   -0.000007465198   0.0
-0.000013715505   -0.000008494658   0.0
-0.000011088295   -0.000009509175   0.0
-0.000008393701   -0.000010458614   0.0
-0.000005649938   -0.000011265690   0.0
-0.000002859916   -0.000011826425   0.0
-0.000000000000   -0.000012026388   0.0
-0.000035161956   0.000000000000   0.0
-0.000034834724   -0.000000563710   0.0
-0.000033858620   -0.000001226727   0.0
-0.000032486798   -0.000002021159   0.0
-0.000030909755   -0.000002910614   0.0
-0.000029233318   -0.000003838190   0.0
-0.000027500571   -0.000004753355   0.0
-0.000025718237   -0.000005621593   0.0
-0.000023876638   -0.000006422952   0.0
-0.000021844941   -0.000007201086   0.0
-0.000019500501   -0.000008013989   0.0
-0.000016850531   -0.000008872964   0.0
-0.000013914677   -0.000009777142   0.0
-0.000010727196   -0.000010697948   0.0
-0.000007330859   -0.000011557217   0.0
-0.000003758519   -0.000012209511   0.0
-0.000000000000   -0.000012459860   0.0
-0.000037674150   0.000000000000   0.0
-0.000037262386   -0.000000879430   0.0
-0.000036169479   -0.000001864039   0.0
-0.000034765539   -0.000002961918   0.0
-0.000033282249   -0.000004089518   0.0
-0.000031810730   -0.000005161330   0.0
-0.000030362216   -0.000006119265   0.0
-0.000028916276   -0.000006931801   0.0
-0.000027444846   -0.000007585948   0.0
-0.000025698073   -0.000008171117   0.0
-0.000023435671   -0.000008793192   0.0
-0.000020654401   -0.000009478641   0.0
-0.000017365867   -0.000010249271   0.0
-0.000013602203   -0.000011104820   0.0
-0.000009420135   -0.000011985010   0.0
-0.000004883065   -0.000012719104   0.0
-0.000000000000   -0.000013024558   0.0
-0.000040444925   0.000000000000   0.0
-0.000039947034   -0.000001268989   0.0
-0.000038763453   -0.000002637449   0.0
-0.000037387185   -0.000004073666   0.0
-0.000036068746   -0.000005448469   0.0
-0.000034861726   -0.000006660578   0.0
-0.000033741558   -0.000007655118   0.0
-0.000032668319   -0.000008410994   0.0
-0.000031610282   -0.000008920961   0.0
-0.000030181800   -0.000009321823   0.0
-0.000028007350   -0.000009764615   0.0
-0.000025080821   -0.000010278722   0.0
-0.000021400525   -0.000010901678   0.0
-0.000016986879   -0.000011661702   0.0
-0.000011897754   -0.000012530058   0.0
-0.000006223796   -0.000013330170   0.0
-0.000000000000   -0.000013692972   0.0
-0.000043396104   0.000000000000   0.0
-0.000042832784   -0.000001730347   0.0
-0.000041593980   -0.000003538931   0.0
-0.000040317541   -0.000005344321   0.0
-0.000039233918   -0.000006978028   0.0
-0.000038345405   -0.000008330187   0.0
-0.000037601534   -0.000009359671   0.0
-0.000036952809   -0.000010055807   0.0
-0.000036359475   -0.000010421291   0.0
-0.000035290167   -0.000010640027   0.0
-0.000033220317   -0.000010905807   0.0
-0.000030132477   -0.000011250083   0.0
-0.000026016433   -0.000011716164   0.0
-0.000020875722   -0.000012355619   0.0
-0.000014759037   -0.000013179488   0.0
-0.000007777752   -0.000014025082   0.0
-0.000000000000   -0.000014442135   0.0
-0.000046471537   0.000000000000   0.0
-0.000045884019   -0.000002262489   0.0
-0.000044639760   -0.000004563778   0.0
-0.000043546549   -0.000006777474   0.0
-0.000042758944   -0.000008680434   0.0
-0.000042248274   -0.000010180064   0.0
-0.000041941221   -0.000011248508   0.0
-0.000041769146   -0.000011891338   0.0
-0.000041325624   -0.000012126767   0.0
-0.000041082400   -0.000012122812   0.0
-0.000039119225   -0.000012211145   0.0
-0.000035848165   -0.000012379296   0.0
-0.000031238678   -0.000012679697   0.0
-0.000025282080   -0.000013176831   0.0
-0.000018008811   -0.000013923421   0.0
-0.000009546612   -0.000014790299   0.0
-0.000000000000   -0.000015254242   0.0
</DataArray> 
</PointData> 
</Piece> 
</UnstructuredGrid> 
</VTKFile> 
