<VTKFile type="UnstructuredGrid"  version="0.1"   > 
<UnstructuredGrid> 
<Piece  NumberOfPoints="  400" NumberOfCells=" 361"> 
<Points> 
<DataArray  type="Float64"  NumberOfComponents="3"  format="ascii" > 
0.000000 0.000000 0.0 
0.052632 0.000000 0.0 
0.105263 0.000000 0.0 
0.157895 0.000000 0.0 
0.210526 0.000000 0.0 
0.263158 0.000000 0.0 
0.315789 0.000000 0.0 
0.368421 0.000000 0.0 
0.421053 0.000000 0.0 
0.473684 0.000000 0.0 
0.526316 0.000000 0.0 
0.578947 0.000000 0.0 
0.631579 0.000000 0.0 
0.684211 0.000000 0.0 
0.736842 0.000000 0.0 
0.789474 0.000000 0.0 
0.842105 0.000000 0.0 
0.894737 0.000000 0.0 
0.947368 0.000000 0.0 
1.000000 0.000000 0.0 
0.000000 0.052632 0.0 
0.052632 0.052632 0.0 
0.105263 0.052632 0.0 
0.157895 0.052632 0.0 
0.210526 0.052632 0.0 
0.263158 0.052632 0.0 
0.315789 0.052632 0.0 
0.368421 0.052632 0.0 
0.421053 0.052632 0.0 
0.473684 0.052632 0.0 
0.526316 0.052632 0.0 
0.578947 0.052632 0.0 
0.631579 0.052632 0.0 
0.684211 0.052632 0.0 
0.736842 0.052632 0.0 
0.789474 0.052632 0.0 
0.842105 0.052632 0.0 
0.894737 0.052632 0.0 
0.947368 0.052632 0.0 
1.000000 0.052632 0.0 
0.000000 0.105263 0.0 
0.052632 0.105263 0.0 
0.105263 0.105263 0.0 
0.157895 0.105263 0.0 
0.210526 0.105263 0.0 
0.263158 0.105263 0.0 
0.315789 0.105263 0.0 
0.368421 0.105263 0.0 
0.421053 0.105263 0.0 
0.473684 0.105263 0.0 
0.526316 0.105263 0.0 
0.578947 0.105263 0.0 
0.631579 0.105263 0.0 
0.684211 0.105263 0.0 
0.736842 0.105263 0.0 
0.789474 0.105263 0.0 
0.842105 0.105263 0.0 
0.894737 0.105263 0.0 
0.947368 0.105263 0.0 
1.000000 0.105263 0.0 
0.000000 0.157895 0.0 
0.052632 0.157895 0.0 
0.105263 0.157895 0.0 
0.157895 0.157895 0.0 
0.210526 0.157895 0.0 
0.263158 0.157895 0.0 
0.315789 0.157895 0.0 
0.368421 0.157895 0.0 
0.421053 0.157895 0.0 
0.473684 0.157895 0.0 
0.526316 0.157895 0.0 
0.578947 0.157895 0.0 
0.631579 0.157895 0.0 
0.684211 0.157895 0.0 
0.736842 0.157895 0.0 
0.789474 0.157895 0.0 
0.842105 0.157895 0.0 
0.894737 0.157895 0.0 
0.947368 0.157895 0.0 
1.000000 0.157895 0.0 
0.000000 0.210526 0.0 
0.052632 0.210526 0.0 
0.105263 0.210526 0.0 
0.157895 0.210526 0.0 
0.210526 0.210526 0.0 
0.263158 0.210526 0.0 
0.315789 0.210526 0.0 
0.368421 0.210526 0.0 
0.421053 0.210526 0.0 
0.473684 0.210526 0.0 
0.526316 0.210526 0.0 
0.578947 0.210526 0.0 
0.631579 0.210526 0.0 
0.684211 0.210526 0.0 
0.736842 0.210526 0.0 
0.789474 0.210526 0.0 
0.842105 0.210526 0.0 
0.894737 0.210526 0.0 
0.947368 0.210526 0.0 
1.000000 0.210526 0.0 
0.000000 0.263158 0.0 
0.052632 0.263158 0.0 
0.105263 0.263158 0.0 
0.157895 0.263158 0.0 
0.210526 0.263158 0.0 
0.263158 0.263158 0.0 
0.315789 0.263158 0.0 
0.368421 0.263158 0.0 
0.421053 0.263158 0.0 
0.473684 0.263158 0.0 
0.526316 0.263158 0.0 
0.578947 0.263158 0.0 
0.631579 0.263158 0.0 
0.684211 0.263158 0.0 
0.736842 0.263158 0.0 
0.789474 0.263158 0.0 
0.842105 0.263158 0.0 
0.894737 0.263158 0.0 
0.947368 0.263158 0.0 
1.000000 0.263158 0.0 
0.000000 0.315789 0.0 
0.052632 0.315789 0.0 
0.105263 0.315789 0.0 
0.157895 0.315789 0.0 
0.210526 0.315789 0.0 
0.263158 0.315789 0.0 
0.315789 0.315789 0.0 
0.368421 0.315789 0.0 
0.421053 0.315789 0.0 
0.473684 0.315789 0.0 
0.526316 0.315789 0.0 
0.578947 0.315789 0.0 
0.631579 0.315789 0.0 
0.684211 0.315789 0.0 
0.736842 0.315789 0.0 
0.789474 0.315789 0.0 
0.842105 0.315789 0.0 
0.894737 0.315789 0.0 
0.947368 0.315789 0.0 
1.000000 0.315789 0.0 
0.000000 0.368421 0.0 
0.052632 0.368421 0.0 
0.105263 0.368421 0.0 
0.157895 0.368421 0.0 
0.210526 0.368421 0.0 
0.263158 0.368421 0.0 
0.315789 0.368421 0.0 
0.368421 0.368421 0.0 
0.421053 0.368421 0.0 
0.473684 0.368421 0.0 
0.526316 0.368421 0.0 
0.578947 0.368421 0.0 
0.631579 0.368421 0.0 
0.684211 0.368421 0.0 
0.736842 0.368421 0.0 
0.789474 0.368421 0.0 
0.842105 0.368421 0.0 
0.894737 0.368421 0.0 
0.947368 0.368421 0.0 
1.000000 0.368421 0.0 
0.000000 0.421053 0.0 
0.052632 0.421053 0.0 
0.105263 0.421053 0.0 
0.157895 0.421053 0.0 
0.210526 0.421053 0.0 
0.263158 0.421053 0.0 
0.315789 0.421053 0.0 
0.368421 0.421053 0.0 
0.421053 0.421053 0.0 
0.473684 0.421053 0.0 
0.526316 0.421053 0.0 
0.578947 0.421053 0.0 
0.631579 0.421053 0.0 
0.684211 0.421053 0.0 
0.736842 0.421053 0.0 
0.789474 0.421053 0.0 
0.842105 0.421053 0.0 
0.894737 0.421053 0.0 
0.947368 0.421053 0.0 
1.000000 0.421053 0.0 
0.000000 0.473684 0.0 
0.052632 0.473684 0.0 
0.105263 0.473684 0.0 
0.157895 0.473684 0.0 
0.210526 0.473684 0.0 
0.263158 0.473684 0.0 
0.315789 0.473684 0.0 
0.368421 0.473684 0.0 
0.421053 0.473684 0.0 
0.473684 0.473684 0.0 
0.526316 0.473684 0.0 
0.578947 0.473684 0.0 
0.631579 0.473684 0.0 
0.684211 0.473684 0.0 
0.736842 0.473684 0.0 
0.789474 0.473684 0.0 
0.842105 0.473684 0.0 
0.894737 0.473684 0.0 
0.947368 0.473684 0.0 
1.000000 0.473684 0.0 
0.000000 0.526316 0.0 
0.052632 0.526316 0.0 
0.105263 0.526316 0.0 
0.157895 0.526316 0.0 
0.210526 0.526316 0.0 
0.263158 0.526316 0.0 
0.315789 0.526316 0.0 
0.368421 0.526316 0.0 
0.421053 0.526316 0.0 
0.473684 0.526316 0.0 
0.526316 0.526316 0.0 
0.578947 0.526316 0.0 
0.631579 0.526316 0.0 
0.684211 0.526316 0.0 
0.736842 0.526316 0.0 
0.789474 0.526316 0.0 
0.842105 0.526316 0.0 
0.894737 0.526316 0.0 
0.947368 0.526316 0.0 
1.000000 0.526316 0.0 
0.000000 0.578947 0.0 
0.052632 0.578947 0.0 
0.105263 0.578947 0.0 
0.157895 0.578947 0.0 
0.210526 0.578947 0.0 
0.263158 0.578947 0.0 
0.315789 0.578947 0.0 
0.368421 0.578947 0.0 
0.421053 0.578947 0.0 
0.473684 0.578947 0.0 
0.526316 0.578947 0.0 
0.578947 0.578947 0.0 
0.631579 0.578947 0.0 
0.684211 0.578947 0.0 
0.736842 0.578947 0.0 
0.789474 0.578947 0.0 
0.842105 0.578947 0.0 
0.894737 0.578947 0.0 
0.947368 0.578947 0.0 
1.000000 0.578947 0.0 
0.000000 0.631579 0.0 
0.052632 0.631579 0.0 
0.105263 0.631579 0.0 
0.157895 0.631579 0.0 
0.210526 0.631579 0.0 
0.263158 0.631579 0.0 
0.315789 0.631579 0.0 
0.368421 0.631579 0.0 
0.421053 0.631579 0.0 
0.473684 0.631579 0.0 
0.526316 0.631579 0.0 
0.578947 0.631579 0.0 
0.631579 0.631579 0.0 
0.684211 0.631579 0.0 
0.736842 0.631579 0.0 
0.789474 0.631579 0.0 
0.842105 0.631579 0.0 
0.894737 0.631579 0.0 
0.947368 0.631579 0.0 
1.000000 0.631579 0.0 
0.000000 0.684211 0.0 
0.052632 0.684211 0.0 
0.105263 0.684211 0.0 
0.157895 0.684211 0.0 
0.210526 0.684211 0.0 
0.263158 0.684211 0.0 
0.315789 0.684211 0.0 
0.368421 0.684211 0.0 
0.421053 0.684211 0.0 
0.473684 0.684211 0.0 
0.526316 0.684211 0.0 
0.578947 0.684211 0.0 
0.631579 0.684211 0.0 
0.684211 0.684211 0.0 
0.736842 0.684211 0.0 
0.789474 0.684211 0.0 
0.842105 0.684211 0.0 
0.894737 0.684211 0.0 
0.947368 0.684211 0.0 
1.000000 0.684211 0.0 
0.000000 0.736842 0.0 
0.052632 0.736842 0.0 
0.105263 0.736842 0.0 
0.157895 0.736842 0.0 
0.210526 0.736842 0.0 
0.263158 0.736842 0.0 
0.315789 0.736842 0.0 
0.368421 0.736842 0.0 
0.421053 0.736842 0.0 
0.473684 0.736842 0.0 
0.526316 0.736842 0.0 
0.578947 0.736842 0.0 
0.631579 0.736842 0.0 
0.684211 0.736842 0.0 
0.736842 0.736842 0.0 
0.789474 0.736842 0.0 
0.842105 0.736842 0.0 
0.894737 0.736842 0.0 
0.947368 0.736842 0.0 
1.000000 0.736842 0.0 
0.000000 0.789474 0.0 
0.052632 0.789474 0.0 
0.105263 0.789474 0.0 
0.157895 0.789474 0.0 
0.210526 0.789474 0.0 
0.263158 0.789474 0.0 
0.315789 0.789474 0.0 
0.368421 0.789474 0.0 
0.421053 0.789474 0.0 
0.473684 0.789474 0.0 
0.526316 0.789474 0.0 
0.578947 0.789474 0.0 
0.631579 0.789474 0.0 
0.684211 0.789474 0.0 
0.736842 0.789474 0.0 
0.789474 0.789474 0.0 
0.842105 0.789474 0.0 
0.894737 0.789474 0.0 
0.947368 0.789474 0.0 
1.000000 0.789474 0.0 
0.000000 0.842105 0.0 
0.052632 0.842105 0.0 
0.105263 0.842105 0.0 
0.157895 0.842105 0.0 
0.210526 0.842105 0.0 
0.263158 0.842105 0.0 
0.315789 0.842105 0.0 
0.368421 0.842105 0.0 
0.421053 0.842105 0.0 
0.473684 0.842105 0.0 
0.526316 0.842105 0.0 
0.578947 0.842105 0.0 
0.631579 0.842105 0.0 
0.684211 0.842105 0.0 
0.736842 0.842105 0.0 
0.789474 0.842105 0.0 
0.842105 0.842105 0.0 
0.894737 0.842105 0.0 
0.947368 0.842105 0.0 
1.000000 0.842105 0.0 
0.000000 0.894737 0.0 
0.052632 0.894737 0.0 
0.105263 0.894737 0.0 
0.157895 0.894737 0.0 
0.210526 0.894737 0.0 
0.263158 0.894737 0.0 
0.315789 0.894737 0.0 
0.368421 0.894737 0.0 
0.421053 0.894737 0.0 
0.473684 0.894737 0.0 
0.526316 0.894737 0.0 
0.578947 0.894737 0.0 
0.631579 0.894737 0.0 
0.684211 0.894737 0.0 
0.736842 0.894737 0.0 
0.789474 0.894737 0.0 
0.842105 0.894737 0.0 
0.894737 0.894737 0.0 
0.947368 0.894737 0.0 
1.000000 0.894737 0.0 
0.000000 0.947368 0.0 
0.052632 0.947368 0.0 
0.105263 0.947368 0.0 
0.157895 0.947368 0.0 
0.210526 0.947368 0.0 
0.263158 0.947368 0.0 
0.315789 0.947368 0.0 
0.368421 0.947368 0.0 
0.421053 0.947368 0.0 
0.473684 0.947368 0.0 
0.526316 0.947368 0.0 
0.578947 0.947368 0.0 
0.631579 0.947368 0.0 
0.684211 0.947368 0.0 
0.736842 0.947368 0.0 
0.789474 0.947368 0.0 
0.842105 0.947368 0.0 
0.894737 0.947368 0.0 
0.947368 0.947368 0.0 
1.000000 0.947368 0.0 
0.000000 1.000000 0.0 
0.052632 1.000000 0.0 
0.105263 1.000000 0.0 
0.157895 1.000000 0.0 
0.210526 1.000000 0.0 
0.263158 1.000000 0.0 
0.315789 1.000000 0.0 
0.368421 1.000000 0.0 
0.421053 1.000000 0.0 
0.473684 1.000000 0.0 
0.526316 1.000000 0.0 
0.578947 1.000000 0.0 
0.631579 1.000000 0.0 
0.684211 1.000000 0.0 
0.736842 1.000000 0.0 
0.789474 1.000000 0.0 
0.842105 1.000000 0.0 
0.894737 1.000000 0.0 
0.947368 1.000000 0.0 
1.000000 1.000000 0.0 
</DataArray> 
</Points> 
<Cells> 
<DataArray  type="Int32"  Name="connectivity"  format="ascii"> 
0 1 21 20 
1 2 22 21 
2 3 23 22 
3 4 24 23 
4 5 25 24 
5 6 26 25 
6 7 27 26 
7 8 28 27 
8 9 29 28 
9 10 30 29 
10 11 31 30 
11 12 32 31 
12 13 33 32 
13 14 34 33 
14 15 35 34 
15 16 36 35 
16 17 37 36 
17 18 38 37 
18 19 39 38 
20 21 41 40 
21 22 42 41 
22 23 43 42 
23 24 44 43 
24 25 45 44 
25 26 46 45 
26 27 47 46 
27 28 48 47 
28 29 49 48 
29 30 50 49 
30 31 51 50 
31 32 52 51 
32 33 53 52 
33 34 54 53 
34 35 55 54 
35 36 56 55 
36 37 57 56 
37 38 58 57 
38 39 59 58 
40 41 61 60 
41 42 62 61 
42 43 63 62 
43 44 64 63 
44 45 65 64 
45 46 66 65 
46 47 67 66 
47 48 68 67 
48 49 69 68 
49 50 70 69 
50 51 71 70 
51 52 72 71 
52 53 73 72 
53 54 74 73 
54 55 75 74 
55 56 76 75 
56 57 77 76 
57 58 78 77 
58 59 79 78 
60 61 81 80 
61 62 82 81 
62 63 83 82 
63 64 84 83 
64 65 85 84 
65 66 86 85 
66 67 87 86 
67 68 88 87 
68 69 89 88 
69 70 90 89 
70 71 91 90 
71 72 92 91 
72 73 93 92 
73 74 94 93 
74 75 95 94 
75 76 96 95 
76 77 97 96 
77 78 98 97 
78 79 99 98 
80 81 101 100 
81 82 102 101 
82 83 103 102 
83 84 104 103 
84 85 105 104 
85 86 106 105 
86 87 107 106 
87 88 108 107 
88 89 109 108 
89 90 110 109 
90 91 111 110 
91 92 112 111 
92 93 113 112 
93 94 114 113 
94 95 115 114 
95 96 116 115 
96 97 117 116 
97 98 118 117 
98 99 119 118 
100 101 121 120 
101 102 122 121 
102 103 123 122 
103 104 124 123 
104 105 125 124 
105 106 126 125 
106 107 127 126 
107 108 128 127 
108 109 129 128 
109 110 130 129 
110 111 131 130 
111 112 132 131 
112 113 133 132 
113 114 134 133 
114 115 135 134 
115 116 136 135 
116 117 137 136 
117 118 138 137 
118 119 139 138 
120 121 141 140 
121 122 142 141 
122 123 143 142 
123 124 144 143 
124 125 145 144 
125 126 146 145 
126 127 147 146 
127 128 148 147 
128 129 149 148 
129 130 150 149 
130 131 151 150 
131 132 152 151 
132 133 153 152 
133 134 154 153 
134 135 155 154 
135 136 156 155 
136 137 157 156 
137 138 158 157 
138 139 159 158 
140 141 161 160 
141 142 162 161 
142 143 163 162 
143 144 164 163 
144 145 165 164 
145 146 166 165 
146 147 167 166 
147 148 168 167 
148 149 169 168 
149 150 170 169 
150 151 171 170 
151 152 172 171 
152 153 173 172 
153 154 174 173 
154 155 175 174 
155 156 176 175 
156 157 177 176 
157 158 178 177 
158 159 179 178 
160 161 181 180 
161 162 182 181 
162 163 183 182 
163 164 184 183 
164 165 185 184 
165 166 186 185 
166 167 187 186 
167 168 188 187 
168 169 189 188 
169 170 190 189 
170 171 191 190 
171 172 192 191 
172 173 193 192 
173 174 194 193 
174 175 195 194 
175 176 196 195 
176 177 197 196 
177 178 198 197 
178 179 199 198 
180 181 201 200 
181 182 202 201 
182 183 203 202 
183 184 204 203 
184 185 205 204 
185 186 206 205 
186 187 207 206 
187 188 208 207 
188 189 209 208 
189 190 210 209 
190 191 211 210 
191 192 212 211 
192 193 213 212 
193 194 214 213 
194 195 215 214 
195 196 216 215 
196 197 217 216 
197 198 218 217 
198 199 219 218 
200 201 221 220 
201 202 222 221 
202 203 223 222 
203 204 224 223 
204 205 225 224 
205 206 226 225 
206 207 227 226 
207 208 228 227 
208 209 229 228 
209 210 230 229 
210 211 231 230 
211 212 232 231 
212 213 233 232 
213 214 234 233 
214 215 235 234 
215 216 236 235 
216 217 237 236 
217 218 238 237 
218 219 239 238 
220 221 241 240 
221 222 242 241 
222 223 243 242 
223 224 244 243 
224 225 245 244 
225 226 246 245 
226 227 247 246 
227 228 248 247 
228 229 249 248 
229 230 250 249 
230 231 251 250 
231 232 252 251 
232 233 253 252 
233 234 254 253 
234 235 255 254 
235 236 256 255 
236 237 257 256 
237 238 258 257 
238 239 259 258 
240 241 261 260 
241 242 262 261 
242 243 263 262 
243 244 264 263 
244 245 265 264 
245 246 266 265 
246 247 267 266 
247 248 268 267 
248 249 269 268 
249 250 270 269 
250 251 271 270 
251 252 272 271 
252 253 273 272 
253 254 274 273 
254 255 275 274 
255 256 276 275 
256 257 277 276 
257 258 278 277 
258 259 279 278 
260 261 281 280 
261 262 282 281 
262 263 283 282 
263 264 284 283 
264 265 285 284 
265 266 286 285 
266 267 287 286 
267 268 288 287 
268 269 289 288 
269 270 290 289 
270 271 291 290 
271 272 292 291 
272 273 293 292 
273 274 294 293 
274 275 295 294 
275 276 296 295 
276 277 297 296 
277 278 298 297 
278 279 299 298 
280 281 301 300 
281 282 302 301 
282 283 303 302 
283 284 304 303 
284 285 305 304 
285 286 306 305 
286 287 307 306 
287 288 308 307 
288 289 309 308 
289 290 310 309 
290 291 311 310 
291 292 312 311 
292 293 313 312 
293 294 314 313 
294 295 315 314 
295 296 316 315 
296 297 317 316 
297 298 318 317 
298 299 319 318 
300 301 321 320 
301 302 322 321 
302 303 323 322 
303 304 324 323 
304 305 325 324 
305 306 326 325 
306 307 327 326 
307 308 328 327 
308 309 329 328 
309 310 330 329 
310 311 331 330 
311 312 332 331 
312 313 333 332 
313 314 334 333 
314 315 335 334 
315 316 336 335 
316 317 337 336 
317 318 338 337 
318 319 339 338 
320 321 341 340 
321 322 342 341 
322 323 343 342 
323 324 344 343 
324 325 345 344 
325 326 346 345 
326 327 347 346 
327 328 348 347 
328 329 349 348 
329 330 350 349 
330 331 351 350 
331 332 352 351 
332 333 353 352 
333 334 354 353 
334 335 355 354 
335 336 356 355 
336 337 357 356 
337 338 358 357 
338 339 359 358 
340 341 361 360 
341 342 362 361 
342 343 363 362 
343 344 364 363 
344 345 365 364 
345 346 366 365 
346 347 367 366 
347 348 368 367 
348 349 369 368 
349 350 370 369 
350 351 371 370 
351 352 372 371 
352 353 373 372 
353 354 374 373 
354 355 375 374 
355 356 376 375 
356 357 377 376 
357 358 378 377 
358 359 379 378 
360 361 381 380 
361 362 382 381 
362 363 383 382 
363 364 384 383 
364 365 385 384 
365 366 386 385 
366 367 387 386 
367 368 388 387 
368 369 389 388 
369 370 390 389 
370 371 391 390 
371 372 392 391 
372 373 393 392 
373 374 394 393 
374 375 395 394 
375 376 396 395 
376 377 397 396 
377 378 398 397 
378 379 399 398 
</DataArray> 
<DataArray  type="Int32"  Name="offsets"  format="ascii"> 
4 
8 
12 
16 
20 
24 
28 
32 
36 
40 
44 
48 
52 
56 
60 
64 
68 
72 
76 
80 
84 
88 
92 
96 
100 
104 
108 
112 
116 
120 
124 
128 
132 
136 
140 
144 
148 
152 
156 
160 
164 
168 
172 
176 
180 
184 
188 
192 
196 
200 
204 
208 
212 
216 
220 
224 
228 
232 
236 
240 
244 
248 
252 
256 
260 
264 
268 
272 
276 
280 
284 
288 
292 
296 
300 
304 
308 
312 
316 
320 
324 
328 
332 
336 
340 
344 
348 
352 
356 
360 
364 
368 
372 
376 
380 
384 
388 
392 
396 
400 
404 
408 
412 
416 
420 
424 
428 
432 
436 
440 
444 
448 
452 
456 
460 
464 
468 
472 
476 
480 
484 
488 
492 
496 
500 
504 
508 
512 
516 
520 
524 
528 
532 
536 
540 
544 
548 
552 
556 
560 
564 
568 
572 
576 
580 
584 
588 
592 
596 
600 
604 
608 
612 
616 
620 
624 
628 
632 
636 
640 
644 
648 
652 
656 
660 
664 
668 
672 
676 
680 
684 
688 
692 
696 
700 
704 
708 
712 
716 
720 
724 
728 
732 
736 
740 
744 
748 
752 
756 
760 
764 
768 
772 
776 
780 
784 
788 
792 
796 
800 
804 
808 
812 
816 
820 
824 
828 
832 
836 
840 
844 
848 
852 
856 
860 
864 
868 
872 
876 
880 
884 
888 
892 
896 
900 
904 
908 
912 
916 
920 
924 
928 
932 
936 
940 
944 
948 
952 
956 
960 
964 
968 
972 
976 
980 
984 
988 
992 
996 
1000 
1004 
1008 
1012 
1016 
1020 
1024 
1028 
1032 
1036 
1040 
1044 
1048 
1052 
1056 
1060 
1064 
1068 
1072 
1076 
1080 
1084 
1088 
1092 
1096 
1100 
1104 
1108 
1112 
1116 
1120 
1124 
1128 
1132 
1136 
1140 
1144 
1148 
1152 
1156 
1160 
1164 
1168 
1172 
1176 
1180 
1184 
1188 
1192 
1196 
1200 
1204 
1208 
1212 
1216 
1220 
1224 
1228 
1232 
1236 
1240 
1244 
1248 
1252 
1256 
1260 
1264 
1268 
1272 
1276 
1280 
1284 
1288 
1292 
1296 
1300 
1304 
1308 
1312 
1316 
1320 
1324 
1328 
1332 
1336 
1340 
1344 
1348 
1352 
1356 
1360 
1364 
1368 
1372 
1376 
1380 
1384 
1388 
1392 
1396 
1400 
1404 
1408 
1412 
1416 
1420 
1424 
1428 
1432 
1436 
1440 
1444 
</DataArray> 
<DataArray  type="UInt8"  Name="types"  format="ascii"> 
9 
9 
9 
9 
9 
9 
9 
9 
9 
9 
9 
9 
9 
9 
9 
9 
9 
9 
9 
9 
9 
9 
9 
9 
9 
9 
9 
9 
9 
9 
9 
9 
9 
9 
9 
9 
9 
9 
9 
9 
9 
9 
9 
9 
9 
9 
9 
9 
9 
9 
9 
9 
9 
9 
9 
9 
9 
9 
9 
9 
9 
9 
9 
9 
9 
9 
9 
9 
9 
9 
9 
9 
9 
9 
9 
9 
9 
9 
9 
9 
9 
9 
9 
9 
9 
9 
9 
9 
9 
9 
9 
9 
9 
9 
9 
9 
9 
9 
9 
9 
9 
9 
9 
9 
9 
9 
9 
9 
9 
9 
9 
9 
9 
9 
9 
9 
9 
9 
9 
9 
9 
9 
9 
9 
9 
9 
9 
9 
9 
9 
9 
9 
9 
9 
9 
9 
9 
9 
9 
9 
9 
9 
9 
9 
9 
9 
9 
9 
9 
9 
9 
9 
9 
9 
9 
9 
9 
9 
9 
9 
9 
9 
9 
9 
9 
9 
9 
9 
9 
9 
9 
9 
9 
9 
9 
9 
9 
9 
9 
9 
9 
9 
9 
9 
9 
9 
9 
9 
9 
9 
9 
9 
9 
9 
9 
9 
9 
9 
9 
9 
9 
9 
9 
9 
9 
9 
9 
9 
9 
9 
9 
9 
9 
9 
9 
9 
9 
9 
9 
9 
9 
9 
9 
9 
9 
9 
9 
9 
9 
9 
9 
9 
9 
9 
9 
9 
9 
9 
9 
9 
9 
9 
9 
9 
9 
9 
9 
9 
9 
9 
9 
9 
9 
9 
9 
9 
9 
9 
9 
9 
9 
9 
9 
9 
9 
9 
9 
9 
9 
9 
9 
9 
9 
9 
9 
9 
9 
9 
9 
9 
9 
9 
9 
9 
9 
9 
9 
9 
9 
9 
9 
9 
9 
9 
9 
9 
9 
9 
9 
9 
9 
9 
9 
9 
9 
9 
9 
9 
9 
9 
9 
9 
9 
9 
9 
9 
9 
9 
9 
9 
9 
9 
9 
9 
9 
9 
9 
9 
9 
9 
9 
9 
9 
9 
9 
9 
9 
9 
9 
9 
9 
9 
9 
9 
9 
9 
9 
9 
9 
9 
9 
9 
9 
9 
9 
9 
9 
9 
9 
9 
9 
</DataArray> 
</Cells> 
<PointData  Vectors="sigma"> 
<DataArray  type="Float64"  Name="sigma" NumberOfComponents="4" format="ascii"> 
0.245911   0.119954   0.159084   0.348262   
0.247674   0.135965   0.175721   0.372542   
0.249531   0.164838   0.193459   0.40073   
0.248573   0.202596   0.210842   0.431088   
0.244021   0.249559   0.226008   0.462781   
0.235833   0.306001   0.236759   0.49523   
0.224805   0.371224   0.240619   0.52781   
0.212622   0.442856   0.235308   0.559712   
0.201639   0.516537   0.219436   0.589722   
0.194278   0.58628   0.193164   0.616039   
0.19227   0.645673   0.158467   0.636438   
0.196127   0.689567   0.118777   0.648883   
0.205134   0.715465   0.0780955   0.652304   
0.217784   0.723908   0.0400017   0.647007   
0.232357   0.717782   0.00696431   0.634479   
0.247333   0.701092   -0.0198359   0.616831   
0.261702   0.677793   -0.0403962   0.59616   
0.27368   0.651187   -0.0545633   0.57416   
0.286433   0.622359   -0.0657378   0.551429   
0.270347   0.584824   -0.0572407   0.516557   
0.243468   0.0936893   0.144264   0.328148   
0.254656   0.117013   0.166116   0.362667   
0.259511   0.144004   0.186769   0.394157   
0.260336   0.180687   0.207807   0.427708   
0.256425   0.2282   0.227592   0.463366   
0.247742   0.288026   0.243477   0.500822   
0.235387   0.360516   0.252025   0.539507   
0.22176   0.443669   0.24964   0.57844   
0.210091   0.532078   0.233692   0.615871   
0.203433   0.617057   0.20381   0.649022   
0.203594   0.688619   0.162602   0.674363   
0.210666   0.738812   0.115162   0.688743   
0.223308   0.764427   0.0674413   0.690765   
0.23945   0.767381   0.0244296   0.68136   
0.256953   0.752957   -0.0109244   0.663214   
0.274049   0.727361   -0.0377788   0.639614   
0.28939   0.696026   -0.0566412   0.613515   
0.303319   0.662907   -0.0690423   0.587091   
0.313912   0.629829   -0.077279   0.561632   
0.296348   0.588845   -0.0668208   0.522927   
0.245798   0.0737123   0.129651   0.313305   
0.2585   0.094862   0.151909   0.347172   
0.268203   0.120866   0.175735   0.38311   
0.272708   0.155153   0.200799   0.420823   
0.271203   0.201488   0.225994   0.461221   
0.26316   0.2631   0.248365   0.504275   
0.249635   0.342429   0.26336   0.549699   
0.233792   0.438936   0.265485   0.596783   
0.220421   0.546569   0.25005   0.643757   
0.214084   0.652703   0.2156   0.68671   
0.217097   0.741171   0.16567   0.719652   
0.2288   0.799003   0.108071   0.736873   
0.246581   0.822154   0.0518395   0.736257   
0.267261   0.81559   0.00383613   0.720198   
0.288076   0.788907   -0.0327821   0.693773   
0.307053   0.75166   -0.058076   0.662264   
0.323239   0.710901   -0.0739356   0.62966   
0.336049   0.670776   -0.0828828   0.598385   
0.345378   0.633527   -0.0871276   0.569746   
0.32652   0.589525   -0.0746902   0.527635   
0.243933   0.0561298   0.112335   0.294651   
0.260549   0.07401   0.13428   0.328897   
0.275009   0.0964911   0.159561   0.367129   
0.28499   0.126846   0.188138   0.409081   
0.287991   0.169443   0.219012   0.454698   
0.282229   0.229859   0.249276   0.504016   
0.267882   0.313926   0.273256   0.556976   
0.248897   0.424931   0.2828   0.613741   
0.232668   0.557857   0.26947   0.673339   
0.226871   0.694707   0.229327   0.730926   
0.234551   0.807748   0.167084   0.775735   
0.253272   0.874354   0.0955663   0.796612   
0.277959   0.890155   0.0290533   0.790407   
0.30392   0.867213   -0.0231527   0.763198   
0.327811   0.822914   -0.0586985   0.724723   
0.347784   0.771217   -0.0798608   0.683114   
0.363121   0.720261   -0.0905694   0.643195   
0.373887   0.673664   -0.0944632   0.607051   
0.380515   0.632597   -0.0942506   0.575246   
0.361215   0.587565   -0.0800229   0.531679   
0.236231   0.0413326   0.0923565   0.270811   
0.257259   0.0555313   0.112756   0.305159   
0.277782   0.0734101   0.137826   0.345178   
0.29514   0.0978904   0.168265   0.390818   
0.305695   0.133736   0.20402   0.441956   
0.305158   0.188128   0.24291   0.498117   
0.291363   0.271661   0.278941   0.559432   
0.267803   0.395235   0.300558   0.626968   
0.246772   0.560858   0.292962   0.703232   
0.242305   0.744805   0.245794   0.783722   
0.258903   0.896212   0.165346   0.848654   
0.288573   0.971277   0.0740209   0.873388   
0.322078   0.968822   -0.00401707   0.854613   
0.353161   0.918234   -0.0574506   0.808389   
0.37871   0.850021   -0.0873902   0.752965   
0.397535   0.782339   -0.100669   0.699631   
0.409832   0.722055   -0.103897   0.652524   
0.416547   0.670517   -0.101669   0.612219   
0.418796   0.627068   -0.0967495   0.57799   
0.399972   0.583145   -0.0812865   0.535366   
0.220088   0.0300404   0.0705867   0.24016   
0.245206   0.0408629   0.0879504   0.273828   
0.272213   0.0539933   0.110635   0.314703   
0.298876   0.0717699   0.140264   0.363386   
0.320809   0.0982529   0.17827   0.419991   
0.331455   0.141407   0.224676   0.484176   
0.322059   0.214138   0.274723   0.554103   
0.292935   0.340556   0.315501   0.63297   
0.261425   0.542946   0.320888   0.728081   
0.26109   0.804693   0.266365   0.847615   
0.296102   1.0222   0.156367   0.950389   
0.343269   1.09862   0.0368743   0.975575   
0.385816   1.05369   -0.0512228   0.927606   
0.419684   0.958861   -0.0975386   0.849513   
0.443373   0.863053   -0.11449   0.773376   
0.45719   0.781437   -0.115763   0.708946   
0.46301   0.715175   -0.11002   0.656531   
0.463014   0.661546   -0.101652   0.613775   
0.458976   0.617735   -0.0926526   0.578346   
0.441567   0.577115   -0.077016   0.539447   
0.193071   0.0227054   0.0488123   0.201385   
0.220429   0.0309709   0.0617826   0.23275   
0.252485   0.0402668   0.0797785   0.272575   
0.28858   0.0522638   0.105055   0.322548   
0.325485   0.0695603   0.140587   0.383969   
0.354672   0.097254   0.189332   0.456396   
0.364242   0.151259   0.252141   0.539612   
0.329631   0.252506   0.31667   0.624518   
0.27494   0.474417   0.352656   0.737107   
0.280134   0.870983   0.290441   0.919871   
0.364037   1.22297   0.131209   1.11113   
0.431946   1.26241   -0.0296195   1.11247   
0.478347   1.1227   -0.111997   0.994914   
0.508658   0.973249   -0.134588   0.874779   
0.523312   0.855474   -0.130363   0.780382   
0.525871   0.767788   -0.117883   0.709909   
0.520628   0.701054   -0.104197   0.65583   
0.510945   0.648761   -0.0915326   0.612869   
0.498861   0.606557   -0.08032   0.57753   
0.483569   0.570874   -0.0660767   0.544773   
0.153664   0.0192455   0.0297102   0.153862   
0.179446   0.0257099   0.0375053   0.180189   
0.212149   0.0325115   0.0494661   0.215656   
0.253458   0.0415142   0.0671949   0.262655   
0.304119   0.0535647   0.0941807   0.325081   
0.359528   0.0701763   0.136423   0.405942   
0.400578   0.0960503   0.19938   0.50047   
0.412   0.174361   0.289483   0.616206   
0.273336   0.283311   0.368911   0.697011   
0.300189   0.926506   0.315755   0.984634   
0.50323   1.58706   0.047395   1.40715   
0.577119   1.41215   -0.129942   1.25016   
0.611032   1.13512   -0.165355   1.02484   
0.623125   0.948933   -0.145742   0.872454   
0.616172   0.830183   -0.120363   0.775111   
0.599008   0.746871   -0.0991079   0.706196   
0.578045   0.684774   -0.0824923   0.653939   
0.556339   0.636118   -0.0695425   0.612185   
0.535253   0.596516   -0.0591435   0.577524   
0.522251   0.566178   -0.0481542   0.551882   
0.101537   0.0183165   0.0152079   0.0973619   
0.121049   0.0223129   0.0198434   0.116752   
0.147096   0.02896   0.0261877   0.142385   
0.182958   0.0371697   0.0356174   0.178496   
0.23444   0.0492011   0.0506612   0.231404   
0.308707   0.0666047   0.0765376   0.311045   
0.400463   0.0869336   0.124534   0.42384   
0.47842   0.117028   0.191214   0.544317   
0.466652   0.303884   0.35395   0.737661   
0.080609   0.437139   0.763876   1.38307   
0.644692   1.66997   0.181683   1.49226   
0.777442   1.37085   -0.224112   1.25243   
0.791793   1.06792   -0.145702   0.992726   
0.756371   0.90971   -0.0991526   0.860863   
0.710077   0.805523   -0.0724988   0.772568   
0.666363   0.731074   -0.0557205   0.707575   
0.627551   0.674073   -0.0444425   0.656586   
0.593684   0.62854   -0.036384   0.615093   
0.564224   0.590851   -0.030205   0.580361   
0.553   0.564664   -0.0241879   0.560491   
0.04019   0.0108024   0.0138191   0.0432514   
0.0444222   0.0103543   0.0135274   0.0465784   
0.0543063   0.0137735   0.0169507   0.057034   
0.0695192   0.0181401   0.0221429   0.0732926   
0.0939556   0.0247045   0.0299211   0.0990084   
0.139331   0.0381246   0.0435954   0.145796   
0.231021   0.060452   0.0722223   0.242297   
0.335026   0.0957902   0.128938   0.373097   
0.604058   0.127654   -0.633588   1.22816   
0.9674   0.443422   0.376363   1.06229   
1.22256   2.21433   -0.166363   1.94262   
1.22069   1.37133   0.0364605   1.30409   
1.00357   1.06992   0.0179261   1.0388   
0.870587   0.910485   0.0111935   0.891417   
0.779817   0.807618   0.00801004   0.794204   
0.712257   0.732889   0.00606548   0.72287   
0.659546   0.675633   0.00482424   0.667787   
0.616962   0.629804   0.0040029   0.623521   
0.58185   0.591866   0.00351383   0.586954   
0.571299   0.567245   0.00351377   0.569315   
0.0303322   -0.0122   -0.0136807   0.044726   
0.0334625   -0.0152229   -0.0182652   0.053495   
0.041408   -0.0163356   -0.0236859   0.065886   
0.0539969   -0.0181026   -0.0321109   0.085523   
0.075223   -0.0190403   -0.0456165   0.11703   
0.116194   -0.0159087   -0.0698927   0.173947   
0.206823   0.00393636   -0.123375   0.296043   
0.313939   0.0465262   -0.258381   0.535162   
0.727503   0.415669   0.489939   1.05819   
1.42411   1.50901   -0.0241433   1.469   
1.22299   2.2153   0.602239   2.18679   
1.32017   1.60345   0.332288   1.59007   
1.05017   1.17865   0.195761   1.17015   
0.895879   0.969497   0.128673   0.961063   
0.794409   0.841664   0.091998   0.834416   
0.721631   0.754761   0.069847   0.748594   
0.665927   0.690523   0.0552957   0.685285   
0.621536   0.640478   0.0451504   0.636046   
0.585284   0.599879   0.0376803   0.596298   
0.57406   0.573689   0.031663   0.576489   
0.0902979   -0.00790874   -0.0281075   0.106304   
0.109697   -0.00417821   -0.0349857   0.127206   
0.134332   -0.000837287   -0.0464283   0.156924   
0.169388   0.00548142   -0.0638217   0.200034   
0.221067   0.0179646   -0.0916909   0.265412   
0.299164   0.0442978   -0.139327   0.369386   
0.405241   0.0980398   -0.22508   0.53487   
0.523483   0.222131   -0.348418   0.75583   
0.499366   0.380174   -0.590002   1.1173   
0.288136   0.921335   -0.51649   1.21107   
0.633006   1.64267   0.0249077   1.43565   
0.844203   1.52661   0.231989   1.38416   
0.86775   1.24514   0.232336   1.17679   
0.806947   1.02771   0.186262   0.991022   
0.744154   0.885032   0.146948   0.862106   
0.689812   0.78579   0.117697   0.769946   
0.644308   0.713177   0.0962633   0.701461   
0.606065   0.657434   0.0802348   0.648382   
0.573717   0.613004   0.0678042   0.605827   
0.560713   0.582662   0.0568146   0.580406   
0.146616   0.00280515   -0.047605   0.167008   
0.172993   0.01065   -0.0602366   0.197694   
0.207154   0.0208424   -0.0785746   0.239899   
0.251211   0.0362447   -0.105585   0.297926   
0.307723   0.0619394   -0.145911   0.378603   
0.374851   0.105892   -0.206806   0.490243   
0.437754   0.182754   -0.292773   0.634172   
0.471574   0.31333   -0.402545   0.811744   
0.373319   0.516573   -0.490675   0.967292   
0.275565   0.869019   -0.401047   1.03642   
0.343413   1.21412   -0.134825   1.10888   