<VTKFile type="UnstructuredGrid"  version="0.1"   > 
<UnstructuredGrid> 
<Piece  NumberOfPoints="  1156" NumberOfCells=" 1089"> 
<Points> 
<DataArray  type="Float64"  NumberOfComponents="3"  format="ascii" > 
0.000000 0.000000 0.0 
0.547619 0.000000 0.0 
0.857143 0.000000 0.0 
1.142857 0.000000 0.0 
1.428571 0.000000 0.0 
1.714286 0.000000 0.0 
2.000000 0.000000 0.0 
2.285714 0.000000 0.0 
2.571429 0.000000 0.0 
2.857143 0.000000 0.0 
3.142857 0.000000 0.0 
3.428571 0.000000 0.0 
3.714286 0.000000 0.0 
4.000000 0.000000 0.0 
4.285714 0.000000 0.0 
4.571429 0.000000 0.0 
4.857143 0.000000 0.0 
5.142857 0.000000 0.0 
5.428571 0.000000 0.0 
5.714286 0.000000 0.0 
6.000000 0.000000 0.0 
6.285714 0.000000 0.0 
6.571429 0.000000 0.0 
6.857143 0.000000 0.0 
7.142857 0.000000 0.0 
7.428571 0.000000 0.0 
7.714286 0.000000 0.0 
8.000000 0.000000 0.0 
8.285714 0.000000 0.0 
8.571429 0.000000 0.0 
8.857143 0.000000 0.0 
9.142857 0.000000 0.0 
9.452381 0.000000 0.0 
10.000000 0.000000 0.0 
0.000000 0.547619 0.0 
0.547619 0.547619 0.0 
0.857143 0.547619 0.0 
1.142857 0.547619 0.0 
1.428571 0.547619 0.0 
1.714286 0.547619 0.0 
2.000000 0.547619 0.0 
2.285714 0.547619 0.0 
2.571429 0.547619 0.0 
2.857143 0.547619 0.0 
3.142857 0.547619 0.0 
3.428571 0.547619 0.0 
3.714286 0.547619 0.0 
4.000000 0.547619 0.0 
4.285714 0.547619 0.0 
4.571429 0.547619 0.0 
4.857143 0.547619 0.0 
5.142857 0.547619 0.0 
5.428571 0.547619 0.0 
5.714286 0.547619 0.0 
6.000000 0.547619 0.0 
6.285714 0.547619 0.0 
6.571429 0.547619 0.0 
6.857143 0.547619 0.0 
7.142857 0.547619 0.0 
7.428571 0.547619 0.0 
7.714286 0.547619 0.0 
8.000000 0.547619 0.0 
8.285714 0.547619 0.0 
8.571429 0.547619 0.0 
8.857143 0.547619 0.0 
9.142857 0.547619 0.0 
9.452381 0.547619 0.0 
10.000000 0.547619 0.0 
0.000000 0.857143 0.0 
0.547619 0.857143 0.0 
0.857143 0.857143 0.0 
1.142857 0.857143 0.0 
1.428571 0.857143 0.0 
1.714286 0.857143 0.0 
2.000000 0.857143 0.0 
2.285714 0.857143 0.0 
2.571429 0.857143 0.0 
2.857143 0.857143 0.0 
3.142857 0.857143 0.0 
3.428571 0.857143 0.0 
3.714286 0.857143 0.0 
4.000000 0.857143 0.0 
4.285714 0.857143 0.0 
4.571429 0.857143 0.0 
4.857143 0.857143 0.0 
5.142857 0.857143 0.0 
5.428571 0.857143 0.0 
5.714286 0.857143 0.0 
6.000000 0.857143 0.0 
6.285714 0.857143 0.0 
6.571429 0.857143 0.0 
6.857143 0.857143 0.0 
7.142857 0.857143 0.0 
7.428571 0.857143 0.0 
7.714286 0.857143 0.0 
8.000000 0.857143 0.0 
8.285714 0.857143 0.0 
8.571429 0.857143 0.0 
8.857143 0.857143 0.0 
9.142857 0.857143 0.0 
9.452381 0.857143 0.0 
10.000000 0.857143 0.0 
0.000000 1.142857 0.0 
0.547619 1.142857 0.0 
0.857143 1.142857 0.0 
1.142857 1.142857 0.0 
1.428571 1.142857 0.0 
1.714286 1.142857 0.0 
2.000000 1.142857 0.0 
2.285714 1.142857 0.0 
2.571429 1.142857 0.0 
2.857143 1.142857 0.0 
3.142857 1.142857 0.0 
3.428571 1.142857 0.0 
3.714286 1.142857 0.0 
4.000000 1.142857 0.0 
4.285714 1.142857 0.0 
4.571429 1.142857 0.0 
4.857143 1.142857 0.0 
5.142857 1.142857 0.0 
5.428571 1.142857 0.0 
5.714286 1.142857 0.0 
6.000000 1.142857 0.0 
6.285714 1.142857 0.0 
6.571429 1.142857 0.0 
6.857143 1.142857 0.0 
7.142857 1.142857 0.0 
7.428571 1.142857 0.0 
7.714286 1.142857 0.0 
8.000000 1.142857 0.0 
8.285714 1.142857 0.0 
8.571429 1.142857 0.0 
8.857143 1.142857 0.0 
9.142857 1.142857 0.0 
9.452381 1.142857 0.0 
10.000000 1.142857 0.0 
0.000000 1.428571 0.0 
0.547619 1.428571 0.0 
0.857143 1.428571 0.0 
1.142857 1.428571 0.0 
1.428571 1.428571 0.0 
1.714286 1.428571 0.0 
2.000000 1.428571 0.0 
2.285714 1.428571 0.0 
2.571429 1.428571 0.0 
2.857143 1.428571 0.0 
3.142857 1.428571 0.0 
3.428571 1.428571 0.0 
3.714286 1.428571 0.0 
4.000000 1.428571 0.0 
4.285714 1.428571 0.0 
4.571429 1.428571 0.0 
4.857143 1.428571 0.0 
5.142857 1.428571 0.0 
5.428571 1.428571 0.0 
5.714286 1.428571 0.0 
6.000000 1.428571 0.0 
6.285714 1.428571 0.0 
6.571429 1.428571 0.0 
6.857143 1.428571 0.0 
7.142857 1.428571 0.0 
7.428571 1.428571 0.0 
7.714286 1.428571 0.0 
8.000000 1.428571 0.0 
8.285714 1.428571 0.0 
8.571429 1.428571 0.0 
8.857143 1.428571 0.0 
9.142857 1.428571 0.0 
9.452381 1.428571 0.0 
10.000000 1.428571 0.0 
0.000000 1.714286 0.0 
0.547619 1.714286 0.0 
0.857143 1.714286 0.0 
1.142857 1.714286 0.0 
1.428571 1.714286 0.0 
1.714286 1.714286 0.0 
2.000000 1.714286 0.0 
2.285714 1.714286 0.0 
2.571429 1.714286 0.0 
2.857143 1.714286 0.0 
3.142857 1.714286 0.0 
3.428571 1.714286 0.0 
3.714286 1.714286 0.0 
4.000000 1.714286 0.0 
4.285714 1.714286 0.0 
4.571429 1.714286 0.0 
4.857143 1.714286 0.0 
5.142857 1.714286 0.0 
5.428571 1.714286 0.0 
5.714286 1.714286 0.0 
6.000000 1.714286 0.0 
6.285714 1.714286 0.0 
6.571429 1.714286 0.0 
6.857143 1.714286 0.0 
7.142857 1.714286 0.0 
7.428571 1.714286 0.0 
7.714286 1.714286 0.0 
8.000000 1.714286 0.0 
8.285714 1.714286 0.0 
8.571429 1.714286 0.0 
8.857143 1.714286 0.0 
9.142857 1.714286 0.0 
9.452381 1.714286 0.0 
10.000000 1.714286 0.0 
0.000000 2.000000 0.0 
0.547619 2.000000 0.0 
0.857143 2.000000 0.0 
1.142857 2.000000 0.0 
1.428571 2.000000 0.0 
1.714286 2.000000 0.0 
2.000000 2.000000 0.0 
2.285714 2.000000 0.0 
2.571429 2.000000 0.0 
2.857143 2.000000 0.0 
3.142857 2.000000 0.0 
3.428571 2.000000 0.0 
3.714286 2.000000 0.0 
4.000000 2.000000 0.0 
4.285714 2.000000 0.0 
4.571429 2.000000 0.0 
4.857143 2.000000 0.0 
5.142857 2.000000 0.0 
5.428571 2.000000 0.0 
5.714286 2.000000 0.0 
6.000000 2.000000 0.0 
6.285714 2.000000 0.0 
6.571429 2.000000 0.0 
6.857143 2.000000 0.0 
7.142857 2.000000 0.0 
7.428571 2.000000 0.0 
7.714286 2.000000 0.0 
8.000000 2.000000 0.0 
8.285714 2.000000 0.0 
8.571429 2.000000 0.0 
8.857143 2.000000 0.0 
9.142857 2.000000 0.0 
9.452381 2.000000 0.0 
10.000000 2.000000 0.0 
0.000000 2.285714 0.0 
0.547619 2.285714 0.0 
0.857143 2.285714 0.0 
1.142857 2.285714 0.0 
1.428571 2.285714 0.0 
1.714286 2.285714 0.0 
2.000000 2.285714 0.0 
2.285714 2.285714 0.0 
2.571429 2.285714 0.0 
2.857143 2.285714 0.0 
3.142857 2.285714 0.0 
3.428571 2.285714 0.0 
3.714286 2.285714 0.0 
4.000000 2.285714 0.0 
4.285714 2.285714 0.0 
4.571429 2.285714 0.0 
4.857143 2.285714 0.0 
5.142857 2.285714 0.0 
5.428571 2.285714 0.0 
5.714286 2.285714 0.0 
6.000000 2.285714 0.0 
6.285714 2.285714 0.0 
6.571429 2.285714 0.0 
6.857143 2.285714 0.0 
7.142857 2.285714 0.0 
7.428571 2.285714 0.0 
7.714286 2.285714 0.0 
8.000000 2.285714 0.0 
8.285714 2.285714 0.0 
8.571429 2.285714 0.0 
8.857143 2.285714 0.0 
9.142857 2.285714 0.0 
9.452381 2.285714 0.0 
10.000000 2.285714 0.0 
0.000000 2.571429 0.0 
0.547619 2.571429 0.0 
0.857143 2.571429 0.0 
1.142857 2.571429 0.0 
1.428571 2.571429 0.0 
1.714286 2.571429 0.0 
2.000000 2.571429 0.0 
2.285714 2.571429 0.0 
2.571429 2.571429 0.0 
2.857143 2.571429 0.0 
3.142857 2.571429 0.0 
3.428571 2.571429 0.0 
3.714286 2.571429 0.0 
4.000000 2.571429 0.0 
4.285714 2.571429 0.0 
4.571429 2.571429 0.0 
4.857143 2.571429 0.0 
5.142857 2.571429 0.0 
5.428571 2.571429 0.0 
5.714286 2.571429 0.0 
6.000000 2.571429 0.0 
6.285714 2.571429 0.0 
6.571429 2.571429 0.0 
6.857143 2.571429 0.0 
7.142857 2.571429 0.0 
7.428571 2.571429 0.0 
7.714286 2.571429 0.0 
8.000000 2.571429 0.0 
8.285714 2.571429 0.0 
8.571429 2.571429 0.0 
8.857143 2.571429 0.0 
9.142857 2.571429 0.0 
9.452381 2.571429 0.0 
10.000000 2.571429 0.0 
0.000000 2.857143 0.0 
0.547619 2.857143 0.0 
0.857143 2.857143 0.0 
1.142857 2.857143 0.0 
1.428571 2.857143 0.0 
1.714286 2.857143 0.0 
2.000000 2.857143 0.0 
2.285714 2.857143 0.0 
2.571429 2.857143 0.0 
2.857143 2.857143 0.0 
3.142857 2.857143 0.0 
3.428571 2.857143 0.0 
3.714286 2.857143 0.0 
4.000000 2.857143 0.0 
4.285714 2.857143 0.0 
4.571429 2.857143 0.0 
4.857143 2.857143 0.0 
5.142857 2.857143 0.0 
5.428571 2.857143 0.0 
5.714286 2.857143 0.0 
6.000000 2.857143 0.0 
6.285714 2.857143 0.0 
6.571429 2.857143 0.0 
6.857143 2.857143 0.0 
7.142857 2.857143 0.0 
7.428571 2.857143 0.0 
7.714286 2.857143 0.0 
8.000000 2.857143 0.0 
8.285714 2.857143 0.0 
8.571429 2.857143 0.0 
8.857143 2.857143 0.0 
9.142857 2.857143 0.0 
9.452381 2.857143 0.0 
10.000000 2.857143 0.0 
0.000000 3.142857 0.0 
0.547619 3.142857 0.0 
0.857143 3.142857 0.0 
1.142857 3.142857 0.0 
1.428571 3.142857 0.0 
1.714286 3.142857 0.0 
2.000000 3.142857 0.0 
2.285714 3.142857 0.0 
2.571429 3.142857 0.0 
2.857143 3.142857 0.0 
3.142857 3.142857 0.0 
3.428571 3.142857 0.0 
3.714286 3.142857 0.0 
4.000000 3.142857 0.0 
4.285714 3.142857 0.0 
4.571429 3.142857 0.0 
4.857143 3.142857 0.0 
5.142857 3.142857 0.0 
5.428571 3.142857 0.0 
5.714286 3.142857 0.0 
6.000000 3.142857 0.0 
6.285714 3.142857 0.0 
6.571429 3.142857 0.0 
6.857143 3.142857 0.0 
7.142857 3.142857 0.0 
7.428571 3.142857 0.0 
7.714286 3.142857 0.0 
8.000000 3.142857 0.0 
8.285714 3.142857 0.0 
8.571429 3.142857 0.0 
8.857143 3.142857 0.0 
9.142857 3.142857 0.0 
9.452381 3.142857 0.0 
10.000000 3.142857 0.0 
0.000000 3.428571 0.0 
0.547619 3.428571 0.0 
0.857143 3.428571 0.0 
1.142857 3.428571 0.0 
1.428571 3.428571 0.0 
1.714286 3.428571 0.0 
2.000000 3.428571 0.0 
2.285714 3.428571 0.0 
2.571429 3.428571 0.0 
2.857143 3.428571 0.0 
3.142857 3.428571 0.0 
3.428571 3.428571 0.0 
3.714286 3.428571 0.0 
4.000000 3.428571 0.0 
4.285714 3.428571 0.0 
4.571429 3.428571 0.0 
4.857143 3.428571 0.0 
5.142857 3.428571 0.0 
5.428571 3.428571 0.0 
5.714286 3.428571 0.0 
6.000000 3.428571 0.0 
6.285714 3.428571 0.0 
6.571429 3.428571 0.0 
6.857143 3.428571 0.0 
7.142857 3.428571 0.0 
7.428571 3.428571 0.0 
7.714286 3.428571 0.0 
8.000000 3.428571 0.0 
8.285714 3.428571 0.0 
8.571429 3.428571 0.0 
8.857143 3.428571 0.0 
9.142857 3.428571 0.0 
9.452381 3.428571 0.0 
10.000000 3.428571 0.0 
0.000000 3.714286 0.0 
0.547619 3.714286 0.0 
0.857143 3.714286 0.0 
1.142857 3.714286 0.0 
1.428571 3.714286 0.0 
1.714286 3.714286 0.0 
2.000000 3.714286 0.0 
2.285714 3.714286 0.0 
2.571429 3.714286 0.0 
2.857143 3.714286 0.0 
3.142857 3.714286 0.0 
3.428571 3.714286 0.0 
3.714286 3.714286 0.0 
4.000000 3.714286 0.0 
4.285714 3.714286 0.0 
4.571429 3.714286 0.0 
4.857143 3.714286 0.0 
[...]
<PointData  Vectors="sigma"> 
<DataArray  type="Float64"  Name="sigma" NumberOfComponents="4" format="ascii"> 
0.077711   0.0371142   0.0490047   0.108336   
0.0804371   0.0457613   0.0549004   0.118006   
0.0816624   0.051547   0.0583656   0.123839   
0.0825317   0.0575326   0.0615943   0.12944   
0.0831036   0.0641835   0.0647945   0.135229   
0.0833348   0.0715359   0.0678956   0.141174   
0.0831865   0.0796125   0.0708113   0.147235   
0.0826288   0.0884165   0.07344   0.153361   
0.0816448   0.0979252   0.0756666   0.159488   
0.0802369   0.108083   0.0773659   0.165542   
0.0784307   0.118798   0.0784094   0.171438   
0.0762791   0.129934   0.0786732   0.177083   
0.0738641   0.141313   0.0780492   0.18238   
0.0712952   0.15272   0.0764563   0.18723   
0.0687039   0.163911   0.0738521   0.191541   
0.0662351   0.174623   0.0702416   0.195232   
0.064035   0.184598   0.065682   0.198239   
0.0622373   0.193601   0.0602817   0.200518   
0.0609513   0.201435   0.0541937   0.20205   
0.0602512   0.207955   0.0476033   0.202841   
0.0601713   0.213084   0.0407127   0.20292   
0.0607052   0.216804   0.0337245   0.202336   
0.0618103   0.219157   0.0268273   0.201155   
0.0634158   0.220235   0.0201837   0.199451   
0.0654317   0.220164   0.0139233   0.197305   
0.067759   0.219092   0.00814017   0.194797   
0.0702981   0.217178   0.00289387   0.192005   
0.0729557   0.214578   -0.00178703   0.189001   
0.0756492   0.21144   -0.00589944   0.185847   
0.0783088   0.207898   -0.00946002   0.182598   
0.0808793   0.204068   -0.0124995   0.179301   
0.0833184   0.20005   -0.0150577   0.175995   
0.0857784   0.195579   -0.0173379   0.172437   
0.0896016   0.187611   -0.0202984   0.166289   
0.0785087   0.0312054   0.0454857   0.104376   
0.0823515   0.0393304   0.051931   0.114805   
0.0842617   0.044911   0.0558513   0.121206   
0.0857808   0.0507997   0.0596042   0.127433   
0.0870011   0.0574744   0.0634332   0.133953   
0.0878561   0.065007   0.0672663   0.140739   
0.0882795   0.0734584   0.0710081   0.147753   
0.0882101   0.0828706   0.0745375   0.154939   
0.0875995   0.0932556   0.0777071   0.162223   
0.0864204   0.104584   0.0803463   0.169513   
0.0846768   0.116771   0.0822676   0.176697   
0.0824129   0.129669   0.0832784   0.183645   
0.0797195   0.143058   0.0831981   0.190216   
0.0767359   0.156649   0.0818783   0.196262   
0.0736443   0.170093   0.0792256   0.20164   
0.0706561   0.183007   0.0752202   0.206222   
0.0679912   0.194999   0.0699285   0.209903   
0.0658533   0.20571   0.0635038   0.212614   
0.0644057   0.214846   0.0561752   0.214328   
0.0637525   0.222204   0.0482244   0.215057   
0.06393   0.227687   0.0399564   0.214853   
0.0649078   0.231304   0.0316693   0.213799   
0.0665997   0.233157   0.0236281   0.212   
0.0688806   0.233416   0.0160472   0.209576   
0.0716046   0.232297   0.00908171   0.206647   
0.0746219   0.230036   0.00282808   0.203331   
0.0777926   0.226868   -0.00266977   0.199733   
0.0809945   0.223011   -0.00741056   0.195949   
0.0841282   0.218661   -0.0114246   0.192058   
0.0871177   0.213984   -0.0147633   0.188124   
0.0899087   0.209117   -0.0174906   0.1842   
0.0924664   0.204169   -0.0196754   0.180326   
0.0949521   0.198814   -0.0215105   0.176219   
0.0986071   0.189579   -0.0236517   0.169257   
0.0784627   0.0277155   0.0430179   0.101496   
0.0830089   0.035405   0.0496927   0.112308   
0.0853724   0.0407732   0.053836   0.119017   
0.087338   0.0465092   0.0578671   0.125598   
0.0890215   0.0530946   0.0620513   0.132546   
0.0903419   0.0606269   0.0663214   0.139842   
0.0912137   0.0691975   0.0705817   0.147451   
0.0915522   0.0788812   0.0747038   0.15532   
0.091282   0.0897232   0.078523   0.163371   
0.0903487   0.101723   0.0818395   0.171502   
0.0887322   0.114816   0.0844238   0.179584   
0.0864609   0.128855   0.0860295   0.187461   
0.0836244   0.1436   0.0864147   0.194956   
0.0803789   0.15871   0.0853704   0.201884   
0.0769432   0.173759   0.0827526   0.208055   
0.0735827   0.18826   0.0785133   0.213299   
0.07058   0.201709   0.072721   0.217478   
0.0681993   0.213641   0.0655647   0.220499   
0.0666501   0.223677   0.0573385   0.222325   
0.0660602   0.231565   0.0484078   0.222978   
0.0664629   0.237204   0.0391656   0.22253   
0.0678017   0.240631   0.0299877   0.221095   
0.0699489   0.242008   0.0211971   0.218816   
0.0727311   0.241579   0.0130419   0.215847   
0.0759563   0.239635   0.00568716   0.212343   
0.0794368   0.236483   -0.000779405   0.208448   
0.0830055   0.232413   -0.00633551   0.20429   
0.0865245   0.227688   -0.0110081   0.199978   
0.0898884   0.222531   -0.0148575   0.1956   
0.0930228   0.217125   -0.0179635   0.191225   
0.0958801   0.211614   -0.0204144   0.186907   
0.0984352   0.206107   -0.0222996   0.182684   
0.100853   0.200239   -0.0238019   0.178246   
0.104264   0.1903   -0.0253736   0.170807   
0.0780041   0.0244435   0.0404169   0.0983667   
0.0832307   0.0316353   0.0472262   0.109481   
0.0860501   0.0367369   0.0515359   0.116451   
0.0884779   0.0422564   0.0557943   0.123346   
0.0906552   0.0486751   0.0602885   0.130687   
0.0924883   0.0561181   0.0649605   0.138465   
0.0938723   0.06471   0.06972   0.146655   
0.094697   0.0745651   0.0744368   0.155206   
0.0948559   0.085771   0.078934   0.164043   
0.0942597   0.0983683   0.0829848   0.173056   
0.0928544   0.112325   0.0863159   0.1821   
0.0906424   0.12751   0.0886198   0.190991   
0.0877027   0.143668   0.08958   0.199514   
0.0842038   0.16041   0.0889085   0.207434   
0.0804042   0.177219   0.086392   0.214506   
0.0766333   0.193482   0.0819393   0.220506   
0.0732527   0.208556   0.0756153   0.225249   
0.0706041   0.221835   0.0676515   0.228612   
0.0689561   0.232835   0.0584245   0.230547   
0.0684634   0.241247   0.0484072   0.231086   
0.0691513   0.246968   0.0381031   0.230331   
0.0709249   0.250085   0.0279827   0.22844   
0.0735997   0.250839   0.0184337   0.225599   
0.0769411   0.249573   0.00973538   0.22201   
0.0807022   0.246672   0.00205433   0.217866   
0.0846541   0.242522   -0.00454246   0.213342   
0.0886038   0.237477   -0.010066   0.208587   
0.0924018   0.231842   -0.0145811   0.203725   
0.0959425   0.225863   -0.0181851   0.19885   
0.099159   0.219736   -0.0209901   0.194034   
0.102016   0.213605   -0.0231108   0.189329   
0.104502   0.207574   -0.0246566   0.184769   
0.106784   0.201236   -0.0257977   0.180018   
0.109847   0.190681   -0.0267803   0.172138   
0.0770636   0.0211674   0.0375042   0.0947382   
0.0829811   0.0277703   0.0443529   0.106086   
0.0862831   0.0325335   0.048775   0.113283   
0.0892154   0.0377559   0.0532154   0.120466   
0.0919489   0.0439141   0.0579832   0.128185   
0.0943786   0.0511625   0.0630362   0.136444   
0.0963811   0.0596647   0.0682972   0.145231   
0.0978179   0.0695829   0.0736418   0.154509   
0.0985451   0.0810609   0.0788877   0.164206   
0.0984277   0.0941988   0.0837851   0.174211   
0.0973629   0.109019   0.0880144   0.184363   
0.0953099   0.125425   0.0911957   0.194451   
0.0923213   0.143165   0.0929159   0.204212   
0.08857   0.161799   0.0927775   0.213345   
0.0843576   0.180701   0.0904643   0.221533   
0.0800959   0.199097   0.0858147   0.228474   
0.0762545   0.216143   0.0788795   0.233916   
0.073284   0.231043   0.0699441   0.237689   
0.0715346   0.243164   0.0595004   0.239734   
0.0711956   0.252124   0.0481719   0.240098   
0.0722733   0.257828   0.0366146   0.238928   
0.0746122   0.260444   0.0254219   0.236442   
0.0779449   0.260336   0.0150577   0.232892   
0.0819533   0.257982   0.00582794   0.22854   
0.0863224   0.253893   -0.00211444   0.223629   
0.0907769   0.248552   -0.0087421   0.218369   
0.0951004   0.242384   -0.0141175   0.212935   
0.0991389   0.235733   -0.0183582   0.207459   
0.102795   0.228868   -0.021608   0.202043   
0.106018   0.221984   -0.0240174   0.196756   
0.108792   0.215222   -0.0257298   0.191645   
0.111125   0.208674   -0.0268748   0.186739   
0.113182   0.201888   -0.0276054   0.181673   
0.115759   0.190767   -0.0279481   0.173357   
0.0755542   0.0179386   0.0342904   0.090567   
0.0821463   0.0238674   0.0410626   0.102056   
0.0859429   0.0282201   0.0455258   0.109431   
0.0894104   0.0330601   0.0500827   0.116859   
0.0927545   0.0388532   0.0550643   0.124922   
0.0958634   0.0457836   0.0604516   0.133642   
0.0985977   0.0540571   0.0661897   0.143028   
0.100791   0.0638925   0.072172   0.153061   
0.102257   0.0755048   0.0782228   0.163686   
0.102804   0.0890765   0.0840787   0.174796   
0.102261   0.104714   0.0893767   0.186222   
0.100519   0.12239   0.0936551   0.197724   
0.0975785   0.141882   0.0963787   0.208983   
0.0935988   0.162711   0.0969985   0.219618   
0.0889242   0.184125   0.0950443   0.229209   
0.0840711   0.205132   0.090239   0.237341   
0.0796592   0.224613   0.0825983   0.243663   
0.076296   0.241493   0.0724767   0.247938   
0.0744485   0.254927   0.0605305   0.250086   
0.0743484   0.264437   0.0476006   0.250183   
0.0759642   0.269961   0.0345563   0.248444   
0.0790426   0.2718   0.0221517   0.245176   
0.0831948   0.270505   0.0109357   0.240725   
0.0879903   0.266744   0.00122643   0.235432   
0.0930315   0.261189   -0.0068638   0.229602   
0.0979964   0.254442   -0.0133763   0.223487   
0.102654   0.246998   -0.0184494   0.217282   
0.106857   0.239237   -0.0222703   0.211131   
0.110531   0.231435   -0.0250399   0.205133   
0.113653   0.223781   -0.0269506   0.199351   
0.116233   0.216399   -0.0281751   0.193823   
0.118307   0.209358   -0.0288614   0.188568   
0.120035   0.20216   -0.0291394   0.183189   
0.121966   0.190547   -0.0288078   0.174451   
0.073385   0.014816   0.0308009   0.0858119   
0.0805999   0.0199983   0.0373623   0.0973254   
0.0848812   0.0238727   0.0417775   0.104807   
0.088895   0.0282453   0.0463633   0.112418   
0.0928869   0.0335624   0.0514706   0.120767   
0.0967462   0.0400359   0.0571115   0.129902   
0.100324   0.0479142   0.0632648   0.139861   
0.103432   0.0574789   0.0698574   0.150655   
0.105839   0.0690307   0.0767383   0.162257   
0.107286   0.0828606   0.0836494   0.17458   
0.107514   0.0991989   0.0901966   0.187459   
0.106311   0.118139   0.0958343   0.200629   
0.103585   0.139535   0.099879   0.213714   
0.0994455   0.162904   0.101574   0.226228   
0.0942669   0.187354   0.100218   0.237609   
0.0886964   0.211608   0.0953427   0.247279   
0.0835659   0.234148   0.0868861   0.254734   
0.0797155   0.253488   0.075291   0.259634   
0.077784   0.268469   0.0614556   0.261866   
0.0780547   0.278492   0.0465438   0.261556   
0.0804213   0.28357   0.0317294   0.259026   
0.0844719   0.28423   0.0179749   0.254719   
0.0896391   0.281308   0.00591358   0.249114   
0.0953442   0.275737   -0.00415767   0.242659   
0.101096   0.268395   -0.0122128   0.235733   
0.106535   0.260012   -0.0184041   0.22863   
0.111434   0.251149   -0.0229766   0.221564   
0.115675   0.242205   -0.0262051   0.214679   
0.119223   0.233446   -0.0283552   0.208065   
0.122095   0.225036   -0.0296622   0.201773   
0.124341   0.217068   -0.0303249   0.195825   
0.126027   0.209582   -0.0305042   0.190226   
0.127303   0.202027   -0.0303008   0.184545   
0.128416   0.190018   -0.0292845   0.17541   
0.070466   0.0118632   0.0270797   0.0804373   
0.0782075   0.0162474   0.0332818   0.09183   
0.0829334   0.0195866   0.0375436   0.0993266   
0.0874745   0.0234134   0.0420481   0.107033   
0.092122   0.0281452   0.0471619   0.115579   
0.096777   0.0340148   0.0529348   0.125049   
0.101294   0.0413092   0.0593918   0.135517   
0.105473   0.0503729   0.0665113   0.147038   
0.109045   0.0616029   0.074193   0.159631   
0.111684   0.0754254   0.0822147   0.173252   
0.113018   0.0922435   0.0901807   0.187762   
0.112692   0.112342   0.0974758   0.202891   
0.110457   0.135741   0.103249   0.218206   
0.106307   0.162021   0.106467   0.233096   
0.100609   0.190163   0.106081   0.246803   
0.0941654   0.218518   0.101299   0.258505   
0.0881116   0.244987   0.0919011   0.267458   
0.0836445   0.267447   0.0784378   0.273151   
0.0816647   0.284263   0.0621762   0.275423   
0.0825144   0.294677   0.044777   0.274487   
0.0859409   0.298875   0.0278571   0.270841   
0.091272   0.297769   0.0126421   0.265139   
0.0976784   0.29263   -0.000175017   0.25805   
0.104395   0.284756   -0.0103872   0.250162   
0.11084   0.275269   -0.0181291   0.241937   
0.116641   0.265027   -0.0237212   0.233709   
0.121611   0.254633   -0.0275499   0.225695   
0.125691   0.244475   -0.0299926   0.218029   
0.12891   0.23478   -0.0313811   0.21078   
0.131342   0.225666   -0.0319884   0.203976   
0.133082   0.217178   -0.0320305   0.197617   
0.134231   0.209318   -0.0316734   0.191689   
0.134918   0.201482   -0.03098   0.185724   
0.135032   0.189192   -0.0293014   0.176227   
0.0667132   0.009146   0.0231921   0.0744161   
0.0748329   0.012709   0.0288804   0.0855142   
0.079925   0.0154738   0.0328717   0.0929104   
0.0849333   0.0186928   0.037165   0.100594   
0.0901989   0.0227424   0.0421352   0.109215   
0.095649   0.0278657   0.0478737   0.118893   
0.10116   0.0343767   0.0544614   0.129752   
0.106539   0.0426749   0.0619478   0.141908   
0.111504   0.0532537   0.0703149   0.155447   
0.115668   0.066694   0.0794212   0.1704   
0.118541   0.0836233   0.0889233   0.186693   
0.119577   0.104613   0.0981822   0.204089   
0.118284   0.129987   0.106186   0.222124   
0.114423   0.159531   0.111556   0.240047   
0.108263   0.192174   0.112722   0.256836   
0.10076   0.225803   0.108342   0.271297   
0.0934922   0.257448   0.0978699   0.282288   
0.0882254   0.283965   0.0819781   0.289013   
0.0862761   0.302961   0.0625214   0.291234   
0.0880416   0.313485   0.0419559   0.289318   
0.0929817   0.316093   0.0225539   0.284069   
0.0999907   0.312363   0.00585139   0.276475   
0.107865   0.304229   -0.00748208   0.267474   
0.115625   0.293472   -0.017459   0.257831   
0.122634   0.281476   -0.024487   0.248089   
0.128566   0.269196   -0.0291254   0.238602   
0.133326   0.257221   -0.0319322   0.229572   
0.136958   0.245881   -0.0333917   0.221099   
0.139581   0.235328   -0.0338916   0.213215   
0.141336   0.225607   -0.0337283   0.205914   
0.142371   0.216701   -0.0331203   0.199167   
0.142818   0.208561   -0.0322256   0.192935   
0.142774   0.200535   -0.031062   0.186714   
0.141713   0.188097   -0.0287836   0.176897   
0.0620566   0.00672704   0.019226   0.0677329   
0.0703493   0.00948127   0.0242527   0.0783358   
0.0756833   0.0116584   0.0278523   0.0854914   
0.0810464   0.0142334   0.0317925   0.0930045   
0.0868303   0.0175305   0.0364441   0.101534   
0.093004   0.0217876   0.0419387   0.111242   
0.0994887   0.0273269   0.0484177   0.122306   
0.106132   0.0345817   0.0560161   0.134919   
0.112674   0.0441252   0.0648302   0.149263   
0.118706   0.0566928   0.0748559   0.165486   
0.123638   0.0731751   0.085886   0.183638   
0.126706   0.0945388   0.0973568   0.203589   
0.12707   0.12161   0.108166   0.224905   
0.124069   0.154651   0.116547   0.246723   
0.117666   0.192751   0.120184   0.267676   
0.108905   0.233284   0.116789   0.285998   
0.0999993   0.271964   0.105129   0.299873   
0.0936644   0.303922   0.0859822   0.307983   
0.0919131   0.325491   0.0621896   0.309965   
0.0951557   0.335524   0.0375427   0.306484   
0.102275   0.335369   0.0152913   0.298888   
0.111442   0.327774   -0.00272973   0.288703   
0.120946   0.31566   -0.0160837   0.27725   
0.12962   0.301392   -0.0252313   0.265485   
0.136869   0.286581   -0.0310063   0.254011   
0.142519   0.272179   -0.0342744   0.24316   
0.146647   0.258679   -0.0357753   0.233078   
0.149444   0.24628   -0.0360809   0.223803   
0.151137   0.235015   -0.0356082   0.215311   
0.151944   0.224832   -0.0346499   0.207548   
0.152056   0.215641   -0.0334065   0.200451   
0.151634   0.207338   -0.0320124   0.193951   
0.150723   0.199228   -0.030434   0.187509   
0.148328   0.18678   -0.0276648   0.177424   
0.0564491   0.00466024   0.0152924   0.0603881   
0.0646525   0.00665803   0.0195312   0.0702725   
0.0700547   0.00826562   0.0226266   0.0770248   
0.0755997   0.0101967   0.0260725   0.0841887   
0.0817238   0.012713   0.0302196   0.0924182   
0.0884521   0.0160295   0.0352309   0.101914   
0.095775   0.0204509   0.041302   0.112916   
0.10362   0.02641   0.0486558   0.125698   
0.111804   0.0345189   0.057524   0.140568   
0.119973   0.0456314   0.0680956   0.157836   
0.12751   0.0608979   0.0804082   0.17776   
0.133468   0.0817662   0.0941432   0.200437   
0.136574   0.109815   0.1083   0.225612   
0.13548   0.146236   0.120809   0.252413   
0.129429   0.190799   0.128367   0.279098   
0.119272   0.240527   0.127062   0.303027   
0.10809   0.289132   0.114201   0.321176   
0.100275   0.328677   0.090521   0.331222   
0.0990803   0.353205   0.0606276   0.332569   
0.104764   0.361498   0.030685   0.326511   
0.115018   0.356636   0.00537788   0.315414   
0.126825   0.343425   -0.0133796   0.301675   
0.137891   0.326177   -0.025851   0.287112   
0.147021   0.307837   -0.0333062   0.272852   
0.153874   0.290065   -0.0371707   0.259474   
0.15859   0.273638   -0.0386428   0.247208   
0.161501   0.258812   -0.0386049   0.236091   
0.162979   0.245583   -0.0376621   0.226061   
0.163363   0.233825   -0.0362113   0.217019   
0.162933   0.223372   -0.0345054   0.208852   
0.161909   0.214055   -0.0327015   0.201456   
0.160464   0.205717   -0.0308946   0.194734   
0.158569   0.197632   -0.0289973   0.188114   
0.154724   0.185309   -0.0258945   0.177817   
0.0498754   0.00298388   0.0115219   0.0524013   
0.0576779   0.00431715   0.0148867   0.0613288   
0.0629272   0.00540809   0.0173889   0.0674973   
0.0684181   0.006738   0.0202192   0.0741073   
0.074617   0.00850046   0.0236886   0.0817871   
0.0816121   0.0108707   0.0279741   0.0907699   
0.0894808   0.0141081   0.0333057   0.101347   
0.0982663   0.0186008   0.039976   0.11388   
0.107933   0.0249351   0.0483456   0.128809   
0.118285   0.0339979   0.058824   0.146651   
0.128837   0.0471154   0.071795   0.167965   
0.138618   0.066203   0.0874129   0.193246   
0.145984   0.0938042   0.105157   0.222689   
0.148635   0.132691   0.123048   0.255733   
0.144357   0.184424   0.136756   0.290405   
0.132967   0.246511   0.139691   0.322818   
0.118532   0.309796   0.125952   0.347699   
0.108565   0.360469   0.0956319   0.360592   
0.108725   0.388108   0.056772   0.360445   
0.118544   0.392056   0.0200336   0.349984   
0.133194   0.379291   -0.00797182   0.333577   
0.147849   0.358163   -0.0260901   0.315005   
0.159828   0.334654   -0.0362076   0.296621   
0.168375   0.311965   -0.0408606   0.27956   
0.173761   0.29141   -0.0421437   0.264207   
0.176615   0.273306   -0.0414989   0.250571   
0.17758   0.257532   -0.0398328   0.238506   
0.177199   0.24381   -0.0376863   0.227817   
0.175888   0.231836   -0.0353707   0.218313   
0.173954   0.221331   -0.0330583   0.20982   
0.171616   0.212054   -0.03084   0.202189   
0.16903   0.203808   -0.0287596   0.195296   
0.166075   0.195849   -0.0266804   0.188541   
0.160722   0.183766   -0.0234458   0.178088   
0.042361   0.00171397   0.00805944   0.0438138   
0.0494178   0.00250795   0.0105217   0.0515421   
0.0542558   0.00316748   0.0123827   0.0569374   
0.059402   0.00398239   0.0145186   0.0627715   
0.0653271   0.00507938   0.0171812   0.0696218   
0.0721762   0.0065829   0.0205382   0.0777371   
0.0801148   0.00868457   0.0248207   0.0874428   
0.08932   0.0116858   0.0303483   0.099166   
0.0999536   0.0160708   0.0375604   0.113468   
0.112097   0.0226318   0.0470491   0.13108   
0.125614   0.0326801   0.0595664   0.152926   
0.139868   0.0483809   0.0759317   0.180093   
0.153248   0.0731902   0.0966386   0.213641   
0.162592   0.112081   0.120759   0.254013   
0.163263   0.170379   0.143734   0.299742   