<VTKFile type="UnstructuredGrid"  version="0.1"   > 
<UnstructuredGrid> 
<Piece  NumberOfPoints="  934" NumberOfCells=" 858"> 
<Points> 
<DataArray  type="Float64"  NumberOfComponents="3"  format="ascii" > 
0.000000 0.000000 0.0 
0.618280 0.000000 0.0 
0.967742 0.000000 0.0 
1.290323 0.000000 0.0 
1.612903 0.000000 0.0 
1.935484 0.000000 0.0 
2.258065 0.000000 0.0 
2.580645 0.000000 0.0 
2.903226 0.000000 0.0 
3.225806 0.000000 0.0 
3.548387 0.000000 0.0 
3.870968 0.000000 0.0 
4.193548 0.000000 0.0 
4.516129 0.000000 0.0 
4.838710 0.000000 0.0 
5.161290 0.000000 0.0 
5.483871 0.000000 0.0 
5.806452 0.000000 0.0 
6.129032 0.000000 0.0 
6.451613 0.000000 0.0 
6.774194 0.000000 0.0 
7.096774 0.000000 0.0 
7.419355 0.000000 0.0 
7.741935 0.000000 0.0 
8.064516 0.000000 0.0 
8.387097 0.000000 0.0 
8.709677 0.000000 0.0 
9.032258 0.000000 0.0 
9.381720 0.000000 0.0 
10.000000 0.000000 0.0 
0.000000 0.618280 0.0 
0.618280 0.618280 0.0 
0.967742 0.618280 0.0 
1.290323 0.618280 0.0 
1.612903 0.618280 0.0 
1.935484 0.618280 0.0 
2.258065 0.618280 0.0 
2.580645 0.618280 0.0 
2.903226 0.618280 0.0 
3.225806 0.618280 0.0 
3.548387 0.618280 0.0 
3.870968 0.618280 0.0 
4.193548 0.618280 0.0 
4.516129 0.618280 0.0 
4.838710 0.618280 0.0 
5.161290 0.618280 0.0 
5.483871 0.618280 0.0 
5.806452 0.618280 0.0 
6.129032 0.618280 0.0 
6.451613 0.618280 0.0 
6.774194 0.618280 0.0 
7.096774 0.618280 0.0 
7.419355 0.618280 0.0 
7.741935 0.618280 0.0 
8.064516 0.618280 0.0 
8.387097 0.618280 0.0 
8.709677 0.618280 0.0 
9.032258 0.618280 0.0 
9.381720 0.618280 0.0 
10.000000 0.618280 0.0 
0.000000 0.967742 0.0 
0.618280 0.967742 0.0 
0.967742 0.967742 0.0 
1.290323 0.967742 0.0 
1.612903 0.967742 0.0 
1.935484 0.967742 0.0 
2.258065 0.967742 0.0 
2.580645 0.967742 0.0 
2.903226 0.967742 0.0 
3.225806 0.967742 0.0 
3.548387 0.967742 0.0 
3.870968 0.967742 0.0 
4.193548 0.967742 0.0 
4.516129 0.967742 0.0 
4.838710 0.967742 0.0 
5.161290 0.967742 0.0 
5.483871 0.967742 0.0 
5.806452 0.967742 0.0 
6.129032 0.967742 0.0 
6.451613 0.967742 0.0 
6.774194 0.967742 0.0 
7.096774 0.967742 0.0 
7.419355 0.967742 0.0 
7.741935 0.967742 0.0 
8.064516 0.967742 0.0 
8.387097 0.967742 0.0 
8.709677 0.967742 0.0 
9.032258 0.967742 0.0 
9.381720 0.967742 0.0 
10.000000 0.967742 0.0 
0.000000 1.290323 0.0 
0.618280 1.290323 0.0 
0.967742 1.290323 0.0 
1.290323 1.290323 0.0 
1.612903 1.290323 0.0 
1.935484 1.290323 0.0 
2.258065 1.290323 0.0 
2.580645 1.290323 0.0 
2.903226 1.290323 0.0 
3.225806 1.290323 0.0 
3.548387 1.290323 0.0 
3.870968 1.290323 0.0 
4.193548 1.290323 0.0 
4.516129 1.290323 0.0 
4.838710 1.290323 0.0 
5.161290 1.290323 0.0 
5.483871 1.290323 0.0 
5.806452 1.290323 0.0 
6.129032 1.290323 0.0 
6.451613 1.290323 0.0 
6.774194 1.290323 0.0 
7.096774 1.290323 0.0 
7.419355 1.290323 0.0 
7.741935 1.290323 0.0 
8.064516 1.290323 0.0 
8.387097 1.290323 0.0 
8.709677 1.290323 0.0 
9.032258 1.290323 0.0 
9.381720 1.290323 0.0 
10.000000 1.290323 0.0 
0.000000 1.612903 0.0 
0.618280 1.612903 0.0 
0.967742 1.612903 0.0 
1.290323 1.612903 0.0 
1.612903 1.612903 0.0 
1.935484 1.612903 0.0 
2.258065 1.612903 0.0 
2.580645 1.612903 0.0 
2.903226 1.612903 0.0 
3.225806 1.612903 0.0 
3.548387 1.612903 0.0 
3.870968 1.612903 0.0 
4.193548 1.612903 0.0 
4.516129 1.612903 0.0 
4.838710 1.612903 0.0 
5.161290 1.612903 0.0 
5.483871 1.612903 0.0 
5.806452 1.612903 0.0 
6.129032 1.612903 0.0 
6.451613 1.612903 0.0 
6.774194 1.612903 0.0 
7.096774 1.612903 0.0 
7.419355 1.612903 0.0 
7.741935 1.612903 0.0 
8.064516 1.612903 0.0 
8.387097 1.612903 0.0 
8.709677 1.612903 0.0 
9.032258 1.612903 0.0 
9.381720 1.612903 0.0 
10.000000 1.612903 0.0 
0.000000 1.935484 0.0 
0.618280 1.935484 0.0 
0.967742 1.935484 0.0 
1.290323 1.935484 0.0 
1.612903 1.935484 0.0 
1.935484 1.935484 0.0 
2.258065 1.935484 0.0 
2.580645 1.935484 0.0 
2.903226 1.935484 0.0 
3.225806 1.935484 0.0 
3.548387 1.935484 0.0 
3.870968 1.935484 0.0 
4.193548 1.935484 0.0 
4.516129 1.935484 0.0 
4.838710 1.935484 0.0 
5.161290 1.935484 0.0 
5.483871 1.935484 0.0 
5.806452 1.935484 0.0 
6.129032 1.935484 0.0 
6.451613 1.935484 0.0 
6.774194 1.935484 0.0 
7.096774 1.935484 0.0 
7.419355 1.935484 0.0 
7.741935 1.935484 0.0 
8.064516 1.935484 0.0 
8.387097 1.935484 0.0 
8.709677 1.935484 0.0 
9.032258 1.935484 0.0 
9.381720 1.935484 0.0 
10.000000 1.935484 0.0 
0.000000 2.258065 0.0 
0.618280 2.258065 0.0 
0.967742 2.258065 0.0 
1.290323 2.258065 0.0 
1.612903 2.258065 0.0 
1.935484 2.258065 0.0 
2.258065 2.258065 0.0 
2.580645 2.258065 0.0 
2.903226 2.258065 0.0 
3.225806 2.258065 0.0 
3.548387 2.258065 0.0 
3.870968 2.258065 0.0 
4.193548 2.258065 0.0 
4.516129 2.258065 0.0 
4.838710 2.258065 0.0 
5.161290 2.258065 0.0 
5.483871 2.258065 0.0 
5.806452 2.258065 0.0 
6.129032 2.258065 0.0 
6.451613 2.258065 0.0 
6.774194 2.258065 0.0 
7.096774 2.258065 0.0 
7.419355 2.258065 0.0 
7.741935 2.258065 0.0 
8.064516 2.258065 0.0 
8.387097 2.258065 0.0 
8.709677 2.258065 0.0 
9.032258 2.258065 0.0 
9.381720 2.258065 0.0 
10.000000 2.258065 0.0 
0.000000 2.580645 0.0 
0.618280 2.580645 0.0 
0.967742 2.580645 0.0 
1.290323 2.580645 0.0 
1.612903 2.580645 0.0 
1.935484 2.580645 0.0 
2.258065 2.580645 0.0 
2.580645 2.580645 0.0 
2.903226 2.580645 0.0 
3.225806 2.580645 0.0 
3.548387 2.580645 0.0 
3.870968 2.580645 0.0 
4.193548 2.580645 0.0 
4.516129 2.580645 0.0 
4.838710 2.580645 0.0 
5.161290 2.580645 0.0 
5.483871 2.580645 0.0 
5.806452 2.580645 0.0 
6.129032 2.580645 0.0 
6.451613 2.580645 0.0 
6.774194 2.580645 0.0 
7.096774 2.580645 0.0 
7.419355 2.580645 0.0 
7.741935 2.580645 0.0 
8.064516 2.580645 0.0 
8.387097 2.580645 0.0 
8.709677 2.580645 0.0 
9.032258 2.580645 0.0 
9.381720 2.580645 0.0 
10.000000 2.580645 0.0 
0.000000 2.903226 0.0 
0.618280 2.903226 0.0 
0.967742 2.903226 0.0 
1.290323 2.903226 0.0 
1.612903 2.903226 0.0 
1.935484 2.903226 0.0 
2.258065 2.903226 0.0 
2.580645 2.903226 0.0 
2.903226 2.903226 0.0 
3.225806 2.903226 0.0 
3.548387 2.903226 0.0 
3.870968 2.903226 0.0 
4.193548 2.903226 0.0 
4.516129 2.903226 0.0 
4.838710 2.903226 0.0 
5.161290 2.903226 0.0 
5.483871 2.903226 0.0 
5.806452 2.903226 0.0 
6.129032 2.903226 0.0 
6.451613 2.903226 0.0 
6.774194 2.903226 0.0 
7.096774 2.903226 0.0 
7.419355 2.903226 0.0 
7.741935 2.903226 0.0 
8.064516 2.903226 0.0 
8.387097 2.903226 0.0 
8.709677 2.903226 0.0 
9.032258 2.903226 0.0 
9.381720 2.903226 0.0 
10.000000 2.903226 0.0 
0.000000 3.225806 0.0 
0.618280 3.225806 0.0 
0.967742 3.225806 0.0 
1.290323 3.225806 0.0 
1.612903 3.225806 0.0 
1.935484 3.225806 0.0 
2.258065 3.225806 0.0 
2.580645 3.225806 0.0 
2.903226 3.225806 0.0 
3.225806 3.225806 0.0 
3.548387 3.225806 0.0 
3.870968 3.225806 0.0 
4.193548 3.225806 0.0 
4.516129 3.225806 0.0 
4.838710 3.225806 0.0 
5.161290 3.225806 0.0 
5.483871 3.225806 0.0 
5.806452 3.225806 0.0 
6.129032 3.225806 0.0 
6.451613 3.225806 0.0 
6.774194 3.225806 0.0 
7.096774 3.225806 0.0 
7.419355 3.225806 0.0 
7.741935 3.225806 0.0 
8.064516 3.225806 0.0 
8.387097 3.225806 0.0 
8.709677 3.225806 0.0 
9.032258 3.225806 0.0 
9.381720 3.225806 0.0 
10.000000 3.225806 0.0 
0.000000 3.548387 0.0 
0.618280 3.548387 0.0 
0.967742 3.548387 0.0 
1.290323 3.548387 0.0 
1.612903 3.548387 0.0 
1.935484 3.548387 0.0 
2.258065 3.548387 0.0 
2.580645 3.548387 0.0 
2.903226 3.548387 0.0 
3.225806 3.548387 0.0 
3.548387 3.548387 0.0 
3.870968 3.548387 0.0 
4.193548 3.548387 0.0 
4.516129 3.548387 0.0 
4.838710 3.548387 0.0 
5.161290 3.548387 0.0 
5.483871 3.548387 0.0 
5.806452 3.548387 0.0 
6.129032 3.548387 0.0 
6.451613 3.548387 0.0 
6.774194 3.548387 0.0 
7.096774 3.548387 0.0 
7.419355 3.548387 0.0 
7.741935 3.548387 0.0 
8.064516 3.548387 0.0 
8.387097 3.548387 0.0 
8.709677 3.548387 0.0 
9.032258 3.548387 0.0 
9.381720 3.548387 0.0 
10.000000 3.548387 0.0 
0.000000 3.870968 0.0 
0.618280 3.870968 0.0 
0.967742 3.870968 0.0 
1.290323 3.870968 0.0 
1.612903 3.870968 0.0 
1.935484 3.870968 0.0 
2.258065 3.870968 0.0 
2.580645 3.870968 0.0 
2.903226 3.870968 0.0 
3.225806 3.870968 0.0 
3.548387 3.870968 0.0 
3.870968 3.870968 0.0 
4.193548 3.870968 0.0 
4.516129 3.870968 0.0 
4.838710 3.870968 0.0 
5.161290 3.870968 0.0 
5.483871 3.870968 0.0 
5.806452 3.870968 0.0 
6.129032 3.870968 0.0 
6.451613 3.870968 0.0 
6.774194 3.870968 0.0 
7.096774 3.870968 0.0 
7.419355 3.870968 0.0 
7.741935 3.870968 0.0 
8.064516 3.870968 0.0 
8.387097 3.870968 0.0 
8.709677 3.870968 0.0 
9.032258 3.870968 0.0 
9.381720 3.870968 0.0 
10.000000 3.870968 0.0 
0.000000 4.193548 0.0 
0.618280 4.193548 0.0 
0.967742 4.193548 0.0 
1.290323 4.193548 0.0 
1.612903 4.193548 0.0 
1.935484 4.193548 0.0 
2.258065 4.193548 0.0 
2.580645 4.193548 0.0 
2.903226 4.193548 0.0 
3.225806 4.193548 0.0 
3.548387 4.193548 0.0 
3.870968 4.193548 0.0 
4.193548 4.193548 0.0 
4.516129 4.193548 0.0 
4.838710 4.193548 0.0 
5.161290 4.193548 0.0 
5.483871 4.193548 0.0 
5.806452 4.193548 0.0 
6.129032 4.193548 0.0 
6.451613 4.193548 0.0 
6.774194 4.193548 0.0 
7.096774 4.193548 0.0 
7.419355 4.193548 0.0 
7.741935 4.193548 0.0 
8.064516 4.193548 0.0 
8.387097 4.193548 0.0 
8.709677 4.193548 0.0 
9.032258 4.193548 0.0 
9.381720 4.193548 0.0 
10.000000 4.193548 0.0 
0.000000 4.516129 0.0 
0.618280 4.516129 0.0 
0.967742 4.516129 0.0 
1.290323 4.516129 0.0 
1.612903 4.516129 0.0 
1.935484 4.516129 0.0 
2.258065 4.516129 0.0 
2.580645 4.516129 0.0 
2.903226 4.516129 0.0 
3.225806 4.516129 0.0 
3.548387 4.516129 0.0 
3.870968 4.516129 0.0 
4.193548 4.516129 0.0 
4.516129 4.516129 0.0 
4.838710 4.516129 0.0 
5.161290 4.516129 0.0 
5.483871 4.516129 0.0 
5.806452 4.516129 0.0 
6.129032 4.516129 0.0 
6.451613 4.516129 0.0 
6.774194 4.516129 0.0 
7.096774 4.516129 0.0 
7.419355 4.516129 0.0 
7.741935 4.516129 0.0 
8.064516 4.516129 0.0 
8.387097 4.516129 0.0 
8.709677 4.516129 0.0 
9.032258 4.516129 0.0 
9.381720 4.516129 0.0 
10.000000 4.516129 0.0 
0.000000 4.838710 0.0 
0.618280 4.838710 0.0 
0.967742 4.838710 0.0 
1.290323 4.838710 0.0 
1.612903 4.838710 0.0 
[...]
<PointData  Vectors="sigma"> 
<DataArray  type="Float64"  Name="sigma" NumberOfComponents="4" format="ascii"> 
13697.080329   6401.189750   8665.211762   19135.446537   
14220.140672   8133.318269   9769.908490   20953.750800   
14445.033844   9326.120125   10436.431966   22083.404064   
14595.071185   10577.391033   11082.824184   23216.513618   
14667.107141   11983.278414   11712.766477   24382.978913   
14659.823950   13554.856395   12312.852510   25588.117799   
14563.433513   15297.515117   12853.509444   26813.454369   
14374.414176   17206.596391   13308.432130   28048.156739   
14093.448535   19270.444616   13644.437080   29272.859402   
13727.989783   21463.945368   13829.141910   30466.987534   
13293.068689   23750.262969   13830.999449   31606.271949   
12811.718044   26079.360663   13624.283280   32665.196172   
12313.529785   28389.652701   13192.153477   33617.217347   
11833.177184   30613.063053   12530.688635   34438.182088   
11406.711707   32680.324925   11650.401782   35107.509871   
11066.845010   34525.808014   10576.842134   35609.317320   
10840.156518   36096.935123   9349.139250   35936.339633   
10743.552110   37357.516235   8015.104152   36088.518846   
10782.227690   38289.708068   6626.875846   36072.929986   
10951.041889   38895.172437   5235.581415   35903.356848   
11235.501073   39193.048420   3886.512398   35599.057952   
11615.743392   39214.373768   2616.262034   35181.287394   
12066.362413   38998.044202   1451.090323   34672.712730   
12565.866356   38586.725301   407.445378   34094.849592   
13086.031012   38021.653528   -507.992585   33468.073994   
13617.238942   37343.222017   -1294.135786   32809.422613   
14124.724857   36582.523601   -1958.787826   32133.803916   
14626.714143   35775.101429   -2501.227048   31453.058310   
15044.191316   34839.049333   -2957.808303   30695.400587   
15762.258850   33216.143477   -3447.093895   29391.272668   
13926.758817   5305.351521   8016.781044   18466.763380   
14686.117777   6927.939949   9246.891307   20456.022628   
15049.566029   8071.663498   10009.491641   21696.449600   
15351.605554   9311.147428   10785.765756   22987.527613   
15570.448210   10736.131381   11571.387732   24335.735842   
15701.718172   12371.890211   12352.685435   25751.003863   
15722.824019   14231.339041   13095.575549   27211.461989   
15621.953884   16322.497972   13764.877553   28703.582263   
15389.732111   18639.882105   14314.671057   30201.915330   
15027.468733   21162.100946   14694.986569   31677.664268   
14547.827373   23847.147993   14853.751798   33095.368010   
13978.571493   26630.927667   14743.960403   34416.530159   
13360.934317   29427.779140   14330.695819   35601.020417   
12748.138773   32136.931891   13598.935790   36611.535476   
12199.043963   34651.517520   12559.063109   37416.829810   
11767.905204   36871.031414   11248.509088   37995.376272   
11498.492031   38714.613480   9728.606138   38338.156887   
11416.850772   40130.276038   8076.421410   38448.769966   
11526.857594   41099.111420   6374.444903   38342.697407   
11813.810845   41634.358117   4700.021231   38044.658886   
12248.590700   41775.002113   3117.393519   37585.213853   
12793.587621   41577.339327   1673.053450   36997.635324   
13408.493702   41104.472194   395.304436   36313.703722   
14057.090373   40421.714502   -704.366195   35563.935306   
14705.825301   39586.301661   -1626.679342   34772.483338   
15333.861777   38652.447355   -2382.790681   33962.932629   
15916.434468   37656.912788   -2986.628641   33147.730453   
16451.892983   36639.700846   -3457.106633   32344.934417   
16892.770723   35507.243941   -3805.316905   31460.382298   
17532.317702   33544.505091   -4165.170819   29942.428246   
13939.420768   4714.138822   7551.070290   17940.852241   
14861.569901   6204.157947   8836.718102   20035.395409   
15320.790793   7288.354338   9643.119160   21334.306384   
15731.605420   8494.339057   10486.410971   22713.477495   
16059.143883   9901.386082   11359.597522   24167.067104   
16299.209962   11545.629368   12251.407269   25711.322524   
16419.349765   13447.782586   13125.674892   27321.860872   
16400.833404   15626.859018   13943.575908   28985.556318   
16224.829074   18086.315545   14650.807455   30673.294369   
15885.046984   20811.757977   15184.930765   32351.423485   
15389.826733   23761.518525   15476.918119   33976.107192   
14767.026063   26863.149354   15460.643920   35497.881016   
14067.500707   30014.101153   15083.022984   36864.755554   
13358.821045   33084.775229   14316.063894   38025.464052   
12717.800105   35934.732791   13167.777385   38938.513012   
12221.268531   38431.022255   11685.186324   39575.974675   
11927.066292   40465.970868   9948.862144   39925.542769   
11866.193574   41974.648025   8063.116505   39995.498140   
12041.744074   42940.250368   6137.435562   39809.515727   
12428.626983   43390.306684   4270.787308   39403.380808   
12981.854852   43384.507120   2540.726990   38818.790812   
13648.830029   43001.681603   999.111954   38098.651063   
14377.238738   42328.244911   -328.506501   37284.658750   
15120.677347   41443.970369   -1436.791697   36411.121524   
15843.044135   40420.876100   -2336.344530   35508.239402   
16519.023011   39316.064355   -3046.374243   34597.821520   
17129.269678   38174.585739   -3590.487391   33696.927177   
17667.708321   37029.217031   -3991.639331   32815.986638   
18102.338987   35784.464626   -4264.073090   31858.861156   
18696.801052   33693.251704   -4498.482074   30258.198542   
13825.470273   4060.491669   7007.791272   17286.423272   
14892.811943   5432.246160   8317.257686   19440.526013   
15458.793851   6446.655363   9160.274214   20799.231414   
15981.456654   7597.883240   10057.833677   22252.855990   
16432.497904   8967.811052   11010.340783   23806.887629   
16799.030840   10598.939481   12007.650824   25476.343517   
17043.721137   12524.698631   13015.715369   27241.798305   
17136.909328   14776.270639   13992.613914   29089.035007   
17049.373854   17372.268751   14877.611233   30989.038607   
16762.775615   20308.057892   15594.067538   32901.569433   
16276.637206   23548.338121   16053.296715   34774.852938   
15617.822001   27014.936382   16163.434451   36545.567771   
14840.587882   30581.976762   15845.944424   38143.514542   
14031.581590   34086.612252   15054.930630   39502.482765   
13295.331758   37341.228371   13790.994887   40561.604792   
12730.081798   40166.612904   12111.558455   41281.437130   
12416.044009   42422.312584   10126.632375   41650.204124   
12394.586527   44025.884774   7974.236768   41677.176286   
12659.080255   44965.426642   5799.033800   41398.156245   
13167.415120   45288.642774   3728.005259   40863.207109   
13856.893773   45087.012233   1854.102567   40129.781050   
14655.592932   44473.034025   230.270938   39255.796395   
15495.998035   43555.914332   -1123.275637   38289.509137   
16325.546564   42438.949345   -2213.874998   37275.361514   
17103.263622   41202.392255   -3063.513149   36243.878323   
17807.028030   39912.585332   -3704.094619   35221.316560   
18420.000158   38613.278473   -4167.881505   34221.905169   
18939.905454   37337.062791   -4485.580633   33256.234575   
19342.395429   35979.071575   -4672.630391   32221.124237   
19846.387585   33742.409153   -4776.352531   30515.651329   
13593.421449   3436.288191   6397.652779   16512.666437   
14811.417313   4650.193000   7704.174109   18713.346166   
15483.543583   5571.927475   8565.529231   20115.123385   
16131.944519   6645.462247   9504.702045   21638.291454   
16722.724528   7947.890141   10524.786194   23285.649426   
17241.794948   9532.900429   11622.701461   25080.927752   
17642.580407   11446.628370   12767.297832   27006.472647   
17886.402709   13740.150390   13918.887840   29054.424578   
17927.309909   16449.709637   15010.463950   31193.339499   
17731.535455   19594.285934   15953.065056   33382.742085   
17282.137969   23148.032486   16632.332225   35557.835077   
16595.005366   27032.765197   16923.763707   37640.364608   
15735.963449   31102.934226   16709.698290   39537.583105   
14809.036107   35144.946685   15908.748277   41149.445425   
13950.176866   38912.486536   14510.958284   42398.781875   
13304.609635   42152.478819   12588.750810   43225.591646   
12976.340920   44668.278379   10287.083338   43605.985360   
13011.446562   46361.807108   7802.830653   43567.570771   
13397.540560   47229.667282   5332.642460   43158.839284   
14068.659719   47359.409544   3036.482842   42452.539682   
14927.251188   46889.816311   1019.603855   41529.030949   
15876.632625   45972.074303   -665.306593   40459.179960   
16836.790523   44758.561175   -2014.762373   39311.494467   
17744.481809   43366.505556   -3051.962130   38130.665984   
18563.868471   41894.206299   -3818.928667   36956.404683   
19273.041035   40405.436772   -4360.322749   35809.929265   
19866.617285   38947.100737   -4721.131188   34708.489344   
20343.495543   37542.829780   -4937.489956   33655.696542   
20692.972936   36082.939517   -5026.980242   32547.287956   
21076.914122   33731.675983   -4982.652647   30750.335248   
13217.844377   2813.576361   5718.535863   15605.869558   
14573.761722   3859.880409   6988.536867   17820.190032   
15357.351320   4672.319829   7849.852780   19255.776304   
16137.217651   5644.245030   8809.681403   20833.058926   
16884.928736   6849.029662   9880.308211   22566.039063   
17581.830770   8350.067267   11064.445231   24480.620331   
18177.535226   10210.612644   12341.716928   26571.216694   
18619.038347   12500.788228   13676.322513   28832.464903   
18846.099853   15290.864124   15003.544343   31243.109349   
18796.875810   18623.942132   16220.392114   33755.076571   
18431.839111   22511.362091   17187.688489   36301.766055   
17750.841108   26881.264007   17731.384736   38778.030925   
16805.657569   31568.691312   17677.589610   41060.580910   
15733.514534   36303.000284   16897.200111   43021.199906   
14723.631942   40719.637718   15347.499021   44519.326742   
13968.651453   44480.905190   13116.757951   45480.588238   
13626.466814   47312.304230   10418.950700   45881.355549   
13759.526887   49069.362550   7522.861785   45735.501049   
14322.652585   49792.280098   4697.509633   45138.141250   
15201.829681   49628.927705   2151.730233   44199.156254   
16264.804307   48784.741734   6.949227   43023.490707   
17385.097700   47487.261492   -1705.183031   41718.507800   
18459.143769   45911.335491   -3002.758272   40350.420624   
19430.095231   44211.173505   -3941.821432   38983.881547   
20260.270520   42480.162765   -4584.403617   37648.817648   
20944.075265   40788.944498   -4995.130616   36372.510885   
21482.790387   39172.377267   -5228.551065   35163.428338   
21885.756724   37649.402283   -5328.120379   34024.179355   
22151.102351   36098.766350   -5309.685789   32844.224587   
22370.226006   33649.386814   -5113.096788   30957.957503   
12676.597157   2231.731688   4986.624244   14559.712988   
14150.117568   3089.575308   6181.768868   16753.992000   
15038.635548   3778.032963   7014.496831   18199.646391   
15948.965493   4623.236261   7968.819529   19811.971944   
16862.313643   5698.075978   9059.982188   21609.552949   
17759.090979   7071.437940   10304.812921   23629.975565   
18585.160705   8821.942932   11693.940967   25875.131196   
19282.251442   11049.746843   13208.279883   28358.668893   
19763.175871   13852.504049   14788.103686   31060.739642   
19943.946646   17335.634326   16331.928059   33952.023233   
19735.042583   21540.475908   17668.999975   36945.127949   
19094.356767   26446.052447   18577.020983   39929.123653   
18076.188778   31864.083194   18792.166301   42726.148414   
16827.340095   37449.137182   18082.747167   45126.324003   
15612.843184   42751.007683   16358.910803   46976.447708   
14731.333618   47194.392656   13727.170687   48108.130191   
14393.823195   50382.854250   10484.968332   48479.025724   
14670.641744   52187.995505   7053.594436   48191.729602   
15480.151213   52661.799038   3815.013663   47342.903745   
16646.316002   52062.518809   1024.707907   46088.031420   
17960.514614   50732.325080   -1211.480861   44604.632997   
19251.882024   48944.091141   -2883.866297   42998.176765   
20426.318032   46955.588152   -4065.941692   41382.696814   
21416.213274   44908.470494   -4844.899037   39800.435566   
22215.544043   42915.985127   -5318.315628   38298.350645   
22822.922274   41024.029206   -5563.963030   36884.164316   
23264.678405   39265.027165   -5649.604920   35570.401983   
23553.205016   37638.722363   -5620.003101   34346.290161   
23701.895334   36018.379755   -5488.858243   33102.603372   
23714.057102   33504.795776   -5141.580135   31140.018350   
11939.282183   1691.758726   4210.485812   13356.447662   
13502.902010   2363.732867   5292.293268   15492.690102   
14476.709996   2911.636453   6069.217997   16923.594887   
15508.011131   3615.157819   6981.208043   18539.570243   
16582.491990   4527.096023   8055.356183   20373.251954   
17688.680786   5727.234096   9316.842940   22467.623588   
18778.319619   7307.202122   10780.207757   24848.383277   
19782.111671   9385.402535   12443.940477   27537.421914   
20610.984701   12118.834537   14277.715338   30552.531703   
21125.228424   15651.169800   16183.971514   33857.977743   
21201.191311   20148.011938   17988.613844   37403.766208   
20724.773495   25626.678250   19387.748768   41021.825644   
19673.306276   31988.114456   20004.210855   44513.726301   
18231.823373   38783.643510   19464.157259   47602.879141   
16740.640035   45208.039539   17551.251943   49913.361793   
15662.713213   50577.830120   14390.894260   51308.332165   
15352.281859   54241.344334   10455.647080   51701.540155   
15871.104016   55912.218399   6352.870931   51105.345926   
17044.422435   55895.739040   2628.192164   49828.280851   
18558.493519   54663.208945   -403.049238   48150.852859   
20132.683511   52642.156289   -2642.931487   46234.715882   
21589.107993   50283.411786   -4185.058753   44288.612845   
22796.112567   47809.746636   -5155.489192   42370.927083   
23747.885154   45415.234217   -5708.884546   40568.015359   
24437.729012   43160.747982   -5962.338569   38883.808277   
24909.664053   41093.941452   -6016.197186   37338.331469   
25195.091815   39213.326022   -5938.482894   35920.620499   
25326.129342   37510.385568   -5776.430557   34620.087035   
25319.745853   35843.886497   -5534.947513   33320.002472   
25079.247172   33299.802409   -5051.855339   31293.373594   
11004.942148   1223.763936   3424.732021   12013.545138   
12590.488072   1700.331607   4349.955974   14027.468181   
13630.171980   2116.713882   5033.279871   15408.199453   
14746.811057   2657.094564   5867.020465   16988.546253   
15963.146290   3387.223867   6871.728949   18811.872611   
17268.055102   4371.754100   8093.423462   20936.016341   
18627.177069   5711.776117   9562.695962   23399.515145   
19991.425260   7553.693786   11317.532009   26267.201246   
21242.225373   10072.565514   13357.919356   29563.948259   
22249.674600   13536.401735   15642.686912   33334.405940   
22766.581231   18158.760006   17995.238838   37498.410149   
22585.890013   24206.766853   20099.679802   41968.440523   
21579.793435   31523.017444   21395.594002   46394.420318   
19867.579019   39691.831208   21226.768018   50331.983959   
18030.714737   47888.046661   19133.610968   53415.364684   
16724.186756   54490.693833   15206.892191   55057.881428   
16481.762965   58589.604026   10207.343859   55238.572127   
17419.676386   60146.900725   5196.987695   54354.220528   
19119.949357   59458.310646   956.963978   52600.100951   
21093.315713   57259.017675   -2175.418756   50298.487809   
22964.768819   54429.433540   -4281.317971   47905.882049   
24479.415856   51356.271674   -5533.371960   45512.542508   
25641.862256   48407.128676   -6192.111275   43295.877483   
26426.582988   45657.856228   -6440.816646   41241.670120   
26923.118297   43188.641087   -6439.654466   39392.227325   
27169.763367   40977.074024   -6282.580738   37714.608502   
27240.674806   39016.232232   -6042.160504   36207.946058   
27163.296693   37266.379278   -5754.465123   34838.076889   
26966.507851   35584.454116   -5416.445520   33494.344378   
26434.924689   33048.549702   -4825.163390   31420.098082   
9815.867577   818.809470   2630.889884   10476.121642   
11402.046402   1143.381216   3379.915266   12351.055772   
12441.076437   1410.358471   3949.579239   13638.938554   
13609.909540   1804.113677   4659.357959   15134.711417   
14912.120658   2333.191320   5544.286433   16889.038750   
16373.017301   3077.088796   6649.807730   18968.995003   
17981.525550   4125.792513   8037.681094   21447.198736   
19696.559203   5620.060027   9771.484420   24398.553182   
21465.399178   7798.808968   11923.778064   27941.182609   
23080.743199   10933.673672   14506.623827   32112.848160   
24345.081530   15530.698668   17460.213985   37018.464146   
24820.427374   21916.139930   20420.502438   42466.382050   
24189.959297   30671.740726   22704.834590   48275.150870   
22412.526714   41215.090804   23201.494434   53779.166709   
19940.881394   51627.840863   20966.252635   57899.216751   
18250.942309   60264.960469   16018.499327   60289.692326   
18277.349398   65062.511540   9613.517515   60458.918364   
19800.552416   65531.814998   3482.513779   58526.047379   
22190.772233   63245.817613   -1215.711780   55618.559401   
24637.154055   59800.853522   -4305.040033   52587.153470   
26597.263725   55830.249153   -6006.460281   49474.559047   
28063.779959   52078.164377   -6809.127898   46661.477397   
28951.394230   48625.364589   -7024.871806   44078.154239   
29448.251279   45613.830442   -6926.066310   41814.885793   
29606.941543   42972.609202   -6647.394857   39793.117190   
29551.216408   40683.967824   -6290.972383   38012.207147   
29334.688322   38683.181345   -5903.941670   36424.208592   
29008.986781   36926.506478   -5515.589102   35002.183159   
28588.627005   35258.045511   -5106.424216   33625.688990   
27736.779582   32765.791070   -4449.288967   31519.787408   
8473.726297   527.288906   1926.077516   8873.741762   
9883.277778   674.958428   2446.240146   10460.220812   
10907.198164   852.524603   2864.219302   11619.224236   
12031.837630   1085.324284   3426.311159   12965.470469   
13354.770267   1437.087465   4133.717592   14576.899523   
14881.773957   1930.483874   5052.147693   16523.847263   
16645.177005   2656.796687   6243.830533   18890.576863   
18670.978733   3744.903119   7817.184631   21818.200347   
20898.868675   5394.783223   9881.910239   25418.064083   
23301.092654   8010.886604   12600.369839   29945.964207   
25479.449809   12044.247020   16014.912115   35451.624667   
27061.224179   18549.734686   20050.926265   42196.479882   
27037.295343   27732.471540   23924.347937   49673.107072   
24930.068468   40220.107518   26008.041199   57146.565508   
21981.696054   54860.710906   23951.704014   63308.873514   
19728.029101   66067.674961   17151.293314   65827.413589   
20042.101647   71002.928203   8293.147921   65010.634936   
23064.488306   70781.846345   739.588013   62539.062167   
26578.765809   67070.564877   -4174.685257   58945.081384   
29342.592497   61703.389302   -6631.403111   54678.012944   
31306.108218   56727.266569   -7631.136629   50959.277632   
32279.379065   52216.538078   -7745.507929   47570.856780   
32719.230982   48456.533512   -7472.118518   44728.300537   
32679.777423   45241.746754   -7001.989896   42230.047065   
32403.075721   42545.599947   -6484.237145   40095.075613   
31939.388962   40233.947701   -5963.694069   38217.068839   
31392.251354   38250.795554   -5477.044917   36576.116253   
30780.938872   36519.992719   -5027.492051   35112.439840   
30120.142267   34893.681911   -4586.647465   33717.967747   