<VTKFile type="UnstructuredGrid"  version="0.1"   > 
<UnstructuredGrid> 
<Piece  NumberOfPoints="  1156" NumberOfCells=" 1089"> 
<Points> 
<DataArray  type="Float64"  NumberOfComponents="3"  format="ascii" > 
0.000000 0.000000 0.0 
0.547619 0.000000 0.0 
0.857143 0.000000 0.0 
1.142857 0.000000 0.0 
1.428571 0.000000 0.0 
1.714286 0.000000 0.0 
2.000000 0.000000 0.0 
2.285714 0.000000 0.0 
2.571429 0.000000 0.0 
2.857143 0.000000 0.0 
3.142857 0.000000 0.0 
3.428571 0.000000 0.0 
3.714286 0.000000 0.0 
4.000000 0.000000 0.0 
4.285714 0.000000 0.0 
4.571429 0.000000 0.0 
4.857143 0.000000 0.0 
5.142857 0.000000 0.0 
5.428571 0.000000 0.0 
5.714286 0.000000 0.0 
6.000000 0.000000 0.0 
6.285714 0.000000 0.0 
6.571429 0.000000 0.0 
6.857143 0.000000 0.0 
7.142857 0.000000 0.0 
7.428571 0.000000 0.0 
7.714286 0.000000 0.0 
8.000000 0.000000 0.0 
8.285714 0.000000 0.0 
8.571429 0.000000 0.0 
8.857143 0.000000 0.0 
9.142857 0.000000 0.0 
9.452381 0.000000 0.0 
10.000000 0.000000 0.0 
0.000000 0.547619 0.0 
0.547619 0.547619 0.0 
0.857143 0.547619 0.0 
1.142857 0.547619 0.0 
1.428571 0.547619 0.0 
1.714286 0.547619 0.0 
2.000000 0.547619 0.0 
2.285714 0.547619 0.0 
2.571429 0.547619 0.0 
2.857143 0.547619 0.0 
3.142857 0.547619 0.0 
3.428571 0.547619 0.0 
3.714286 0.547619 0.0 
4.000000 0.547619 0.0 
4.285714 0.547619 0.0 
4.571429 0.547619 0.0 
4.857143 0.547619 0.0 
5.142857 0.547619 0.0 
5.428571 0.547619 0.0 
5.714286 0.547619 0.0 
6.000000 0.547619 0.0 
6.285714 0.547619 0.0 
6.571429 0.547619 0.0 
6.857143 0.547619 0.0 
7.142857 0.547619 0.0 
7.428571 0.547619 0.0 
7.714286 0.547619 0.0 
8.000000 0.547619 0.0 
8.285714 0.547619 0.0 
8.571429 0.547619 0.0 
8.857143 0.547619 0.0 
9.142857 0.547619 0.0 
9.452381 0.547619 0.0 
10.000000 0.547619 0.0 
0.000000 0.857143 0.0 
0.547619 0.857143 0.0 
0.857143 0.857143 0.0 
1.142857 0.857143 0.0 
1.428571 0.857143 0.0 
1.714286 0.857143 0.0 
2.000000 0.857143 0.0 
2.285714 0.857143 0.0 
2.571429 0.857143 0.0 
2.857143 0.857143 0.0 
3.142857 0.857143 0.0 
3.428571 0.857143 0.0 
3.714286 0.857143 0.0 
4.000000 0.857143 0.0 
4.285714 0.857143 0.0 
4.571429 0.857143 0.0 
4.857143 0.857143 0.0 
5.142857 0.857143 0.0 
5.428571 0.857143 0.0 
5.714286 0.857143 0.0 
6.000000 0.857143 0.0 
6.285714 0.857143 0.0 
6.571429 0.857143 0.0 
6.857143 0.857143 0.0 
7.142857 0.857143 0.0 
7.428571 0.857143 0.0 
7.714286 0.857143 0.0 
8.000000 0.857143 0.0 
8.285714 0.857143 0.0 
8.571429 0.857143 0.0 
8.857143 0.857143 0.0 
9.142857 0.857143 0.0 
9.452381 0.857143 0.0 
10.000000 0.857143 0.0 
0.000000 1.142857 0.0 
0.547619 1.142857 0.0 
0.857143 1.142857 0.0 
1.142857 1.142857 0.0 
1.428571 1.142857 0.0 
1.714286 1.142857 0.0 
2.000000 1.142857 0.0 
2.285714 1.142857 0.0 
2.571429 1.142857 0.0 
2.857143 1.142857 0.0 
3.142857 1.142857 0.0 
3.428571 1.142857 0.0 
3.714286 1.142857 0.0 
4.000000 1.142857 0.0 
4.285714 1.142857 0.0 
4.571429 1.142857 0.0 
4.857143 1.142857 0.0 
5.142857 1.142857 0.0 
5.428571 1.142857 0.0 
5.714286 1.142857 0.0 
6.000000 1.142857 0.0 
6.285714 1.142857 0.0 
6.571429 1.142857 0.0 
6.857143 1.142857 0.0 
7.142857 1.142857 0.0 
7.428571 1.142857 0.0 
7.714286 1.142857 0.0 
8.000000 1.142857 0.0 
8.285714 1.142857 0.0 
8.571429 1.142857 0.0 
8.857143 1.142857 0.0 
9.142857 1.142857 0.0 
9.452381 1.142857 0.0 
10.000000 1.142857 0.0 
0.000000 1.428571 0.0 
0.547619 1.428571 0.0 
0.857143 1.428571 0.0 
1.142857 1.428571 0.0 
1.428571 1.428571 0.0 
1.714286 1.428571 0.0 
2.000000 1.428571 0.0 
2.285714 1.428571 0.0 
2.571429 1.428571 0.0 
2.857143 1.428571 0.0 
3.142857 1.428571 0.0 
3.428571 1.428571 0.0 
3.714286 1.428571 0.0 
4.000000 1.428571 0.0 
4.285714 1.428571 0.0 
4.571429 1.428571 0.0 
4.857143 1.428571 0.0 
5.142857 1.428571 0.0 
5.428571 1.428571 0.0 
5.714286 1.428571 0.0 
6.000000 1.428571 0.0 
6.285714 1.428571 0.0 
6.571429 1.428571 0.0 
6.857143 1.428571 0.0 
7.142857 1.428571 0.0 
7.428571 1.428571 0.0 
7.714286 1.428571 0.0 
8.000000 1.428571 0.0 
8.285714 1.428571 0.0 
8.571429 1.428571 0.0 
8.857143 1.428571 0.0 
9.142857 1.428571 0.0 
9.452381 1.428571 0.0 
10.000000 1.428571 0.0 
0.000000 1.714286 0.0 
0.547619 1.714286 0.0 
0.857143 1.714286 0.0 
1.142857 1.714286 0.0 
1.428571 1.714286 0.0 
1.714286 1.714286 0.0 
2.000000 1.714286 0.0 
2.285714 1.714286 0.0 
2.571429 1.714286 0.0 
2.857143 1.714286 0.0 
3.142857 1.714286 0.0 
3.428571 1.714286 0.0 
3.714286 1.714286 0.0 
4.000000 1.714286 0.0 
4.285714 1.714286 0.0 
4.571429 1.714286 0.0 
4.857143 1.714286 0.0 
5.142857 1.714286 0.0 
5.428571 1.714286 0.0 
5.714286 1.714286 0.0 
6.000000 1.714286 0.0 
6.285714 1.714286 0.0 
6.571429 1.714286 0.0 
6.857143 1.714286 0.0 
7.142857 1.714286 0.0 
7.428571 1.714286 0.0 
7.714286 1.714286 0.0 
8.000000 1.714286 0.0 
8.285714 1.714286 0.0 
8.571429 1.714286 0.0 
8.857143 1.714286 0.0 
9.142857 1.714286 0.0 
9.452381 1.714286 0.0 
10.000000 1.714286 0.0 
0.000000 2.000000 0.0 
0.547619 2.000000 0.0 
0.857143 2.000000 0.0 
1.142857 2.000000 0.0 
1.428571 2.000000 0.0 
1.714286 2.000000 0.0 
2.000000 2.000000 0.0 
2.285714 2.000000 0.0 
2.571429 2.000000 0.0 
2.857143 2.000000 0.0 
3.142857 2.000000 0.0 
3.428571 2.000000 0.0 
3.714286 2.000000 0.0 
4.000000 2.000000 0.0 
4.285714 2.000000 0.0 
4.571429 2.000000 0.0 
4.857143 2.000000 0.0 
5.142857 2.000000 0.0 
5.428571 2.000000 0.0 
5.714286 2.000000 0.0 
6.000000 2.000000 0.0 
6.285714 2.000000 0.0 
6.571429 2.000000 0.0 
6.857143 2.000000 0.0 
7.142857 2.000000 0.0 
7.428571 2.000000 0.0 
7.714286 2.000000 0.0 
8.000000 2.000000 0.0 
8.285714 2.000000 0.0 
8.571429 2.000000 0.0 
8.857143 2.000000 0.0 
9.142857 2.000000 0.0 
9.452381 2.000000 0.0 
10.000000 2.000000 0.0 
0.000000 2.285714 0.0 
0.547619 2.285714 0.0 
0.857143 2.285714 0.0 
1.142857 2.285714 0.0 
1.428571 2.285714 0.0 
1.714286 2.285714 0.0 
2.000000 2.285714 0.0 
2.285714 2.285714 0.0 
2.571429 2.285714 0.0 
2.857143 2.285714 0.0 
3.142857 2.285714 0.0 
3.428571 2.285714 0.0 
3.714286 2.285714 0.0 
4.000000 2.285714 0.0 
4.285714 2.285714 0.0 
4.571429 2.285714 0.0 
4.857143 2.285714 0.0 
5.142857 2.285714 0.0 
5.428571 2.285714 0.0 
5.714286 2.285714 0.0 
6.000000 2.285714 0.0 
6.285714 2.285714 0.0 
6.571429 2.285714 0.0 
6.857143 2.285714 0.0 
7.142857 2.285714 0.0 
7.428571 2.285714 0.0 
7.714286 2.285714 0.0 
8.000000 2.285714 0.0 
8.285714 2.285714 0.0 
8.571429 2.285714 0.0 
8.857143 2.285714 0.0 
9.142857 2.285714 0.0 
9.452381 2.285714 0.0 
10.000000 2.285714 0.0 
0.000000 2.571429 0.0 
0.547619 2.571429 0.0 
0.857143 2.571429 0.0 
1.142857 2.571429 0.0 
1.428571 2.571429 0.0 
1.714286 2.571429 0.0 
2.000000 2.571429 0.0 
2.285714 2.571429 0.0 
2.571429 2.571429 0.0 
2.857143 2.571429 0.0 
3.142857 2.571429 0.0 
3.428571 2.571429 0.0 
3.714286 2.571429 0.0 
4.000000 2.571429 0.0 
4.285714 2.571429 0.0 
4.571429 2.571429 0.0 
4.857143 2.571429 0.0 
5.142857 2.571429 0.0 
5.428571 2.571429 0.0 
5.714286 2.571429 0.0 
6.000000 2.571429 0.0 
6.285714 2.571429 0.0 
6.571429 2.571429 0.0 
6.857143 2.571429 0.0 
7.142857 2.571429 0.0 
7.428571 2.571429 0.0 
7.714286 2.571429 0.0 
8.000000 2.571429 0.0 
8.285714 2.571429 0.0 
8.571429 2.571429 0.0 
8.857143 2.571429 0.0 
9.142857 2.571429 0.0 
9.452381 2.571429 0.0 
10.000000 2.571429 0.0 
0.000000 2.857143 0.0 
0.547619 2.857143 0.0 
0.857143 2.857143 0.0 
1.142857 2.857143 0.0 
1.428571 2.857143 0.0 
1.714286 2.857143 0.0 
2.000000 2.857143 0.0 
2.285714 2.857143 0.0 
2.571429 2.857143 0.0 
2.857143 2.857143 0.0 
3.142857 2.857143 0.0 
3.428571 2.857143 0.0 
3.714286 2.857143 0.0 
4.000000 2.857143 0.0 
4.285714 2.857143 0.0 
4.571429 2.857143 0.0 
4.857143 2.857143 0.0 
5.142857 2.857143 0.0 
5.428571 2.857143 0.0 
5.714286 2.857143 0.0 
6.000000 2.857143 0.0 
6.285714 2.857143 0.0 
6.571429 2.857143 0.0 
6.857143 2.857143 0.0 
7.142857 2.857143 0.0 
7.428571 2.857143 0.0 
7.714286 2.857143 0.0 
8.000000 2.857143 0.0 
8.285714 2.857143 0.0 
8.571429 2.857143 0.0 
8.857143 2.857143 0.0 
9.142857 2.857143 0.0 
9.452381 2.857143 0.0 
10.000000 2.857143 0.0 
0.000000 3.142857 0.0 
0.547619 3.142857 0.0 
0.857143 3.142857 0.0 
1.142857 3.142857 0.0 
1.428571 3.142857 0.0 
1.714286 3.142857 0.0 
2.000000 3.142857 0.0 
2.285714 3.142857 0.0 
2.571429 3.142857 0.0 
2.857143 3.142857 0.0 
3.142857 3.142857 0.0 
3.428571 3.142857 0.0 
3.714286 3.142857 0.0 
4.000000 3.142857 0.0 
4.285714 3.142857 0.0 
4.571429 3.142857 0.0 
4.857143 3.142857 0.0 
5.142857 3.142857 0.0 
5.428571 3.142857 0.0 
5.714286 3.142857 0.0 
6.000000 3.142857 0.0 
6.285714 3.142857 0.0 
6.571429 3.142857 0.0 
6.857143 3.142857 0.0 
7.142857 3.142857 0.0 
7.428571 3.142857 0.0 
7.714286 3.142857 0.0 
8.000000 3.142857 0.0 
8.285714 3.142857 0.0 
8.571429 3.142857 0.0 
8.857143 3.142857 0.0 
9.142857 3.142857 0.0 
9.452381 3.142857 0.0 
10.000000 3.142857 0.0 
0.000000 3.428571 0.0 
0.547619 3.428571 0.0 
0.857143 3.428571 0.0 
1.142857 3.428571 0.0 
1.428571 3.428571 0.0 
1.714286 3.428571 0.0 
2.000000 3.428571 0.0 
2.285714 3.428571 0.0 
2.571429 3.428571 0.0 
2.857143 3.428571 0.0 
3.142857 3.428571 0.0 
3.428571 3.428571 0.0 
3.714286 3.428571 0.0 
4.000000 3.428571 0.0 
4.285714 3.428571 0.0 
4.571429 3.428571 0.0 
4.857143 3.428571 0.0 
5.142857 3.428571 0.0 
5.428571 3.428571 0.0 
5.714286 3.428571 0.0 
6.000000 3.428571 0.0 
6.285714 3.428571 0.0 
6.571429 3.428571 0.0 
6.857143 3.428571 0.0 
7.142857 3.428571 0.0 
7.428571 3.428571 0.0 
7.714286 3.428571 0.0 
8.000000 3.428571 0.0 
8.285714 3.428571 0.0 
8.571429 3.428571 0.0 
8.857143 3.428571 0.0 
9.142857 3.428571 0.0 
9.452381 3.428571 0.0 
10.000000 3.428571 0.0 
0.000000 3.714286 0.0 
0.547619 3.714286 0.0 
0.857143 3.714286 0.0 
1.142857 3.714286 0.0 
1.428571 3.714286 0.0 
1.714286 3.714286 0.0 
2.000000 3.714286 0.0 
2.285714 3.714286 0.0 
2.571429 3.714286 0.0 
2.857143 3.714286 0.0 
3.142857 3.714286 0.0 
3.428571 3.714286 0.0 
3.714286 3.714286 0.0 
4.000000 3.714286 0.0 
4.285714 3.714286 0.0 
4.571429 3.714286 0.0 
4.857143 3.714286 0.0 
[...]
<PointData  Vectors="sigma"> 
<DataArray  type="Float64"  Name="sigma" NumberOfComponents="4" format="ascii"> 
0.0775624   0.036788   0.0490853   0.10837   
0.0800549   0.0449272   0.0545293   0.117264   
0.0812581   0.0506668   0.0578543   0.122859   
0.0821432   0.0566467   0.0610921   0.128452   
0.0827032   0.0632812   0.0642894   0.134202   
0.0829399   0.0706403   0.0674065   0.140147   
0.082804   0.078746   0.0703343   0.146211   
0.0822716   0.087605   0.0729832   0.152366   
0.0813262   0.0972002   0.0752313   0.158544   
0.0799714   0.107477   0.0769559   0.164676   
0.0782327   0.118343   0.0780257   0.170678   
0.0761625   0.129661   0.0783163   0.176459   
0.0738401   0.141248   0.0777176   0.181916   
0.0713718   0.152881   0.0761477   0.18695   
0.0688841   0.164303   0.0735625   0.19146   
0.0665168   0.175243   0.0699669   0.195356   
0.0644101   0.185428   0.0654175   0.198563   
0.0626926   0.194611   0.0600231   0.201026   
0.0614693   0.202586   0.0539379   0.202718   
0.0608115   0.209201   0.0473486   0.203635   
0.0607523   0.214377   0.0404585   0.203801   
0.0612859   0.218095   0.0334724   0.203265   
0.0623717   0.220406   0.0265797   0.202092   
0.0639427   0.221405   0.0199443   0.200362   
0.0659107   0.221229   0.013696   0.198161   
0.0681849   0.220034   0.00792984   0.195575   
0.0706612   0.217986   0.00270359   0.192691   
0.0732654   0.215252   -0.00195143   0.189584   
0.0758874   0.21198   -0.00603809   0.186325   
0.0785168   0.208322   -0.00956294   0.182977   
0.0809947   0.204369   -0.0125771   0.179579   
0.0834563   0.200284   -0.0150571   0.176193   
0.0854696   0.195576   -0.0171972   0.172413   
0.0891116   0.187578   -0.01947   0.165976   
0.0785093   0.0308596   0.0457389   0.104735   
0.0822458   0.0389676   0.0518925   0.114701   
0.0840756   0.0445091   0.0556053   0.120762   
0.0856125   0.0503919   0.0593737   0.127005   
0.0868213   0.0570563   0.0631962   0.133495   
0.0876813   0.0645876   0.067041   0.140285   
0.08811   0.0730463   0.07079   0.147298   
0.0880537   0.0824778   0.0743322   0.154497   
0.0874614   0.0928954   0.0775155   0.161803   
0.0863079   0.104271   0.0801707   0.169128   
0.0845961   0.116521   0.0821088   0.176358   
0.0823703   0.129497   0.0831368   0.183365   
0.0797195   0.142976   0.0830727   0.190007   
0.0767821   0.156666   0.0817676   0.196134   
0.0737372   0.170215   0.0791267   0.201599   
0.0707939   0.183233   0.0751301   0.206272   
0.0681704   0.195323   0.0698437   0.210042   
0.0660672   0.20612   0.063421   0.212836   
0.064646   0.215325   0.0560917   0.214623   
0.0640105   0.222731   0.0481384   0.21541   
0.064196   0.228242   0.0398672   0.215247   
0.0651726   0.231865   0.0315775   0.214217   
0.0668557   0.233704   0.023535   0.212425   
0.0691215   0.233934   0.0159548   0.209992   
0.0718254   0.232773   0.00899262   0.20704   
0.0748209   0.230462   0.00274472   0.203691   
0.0779667   0.227237   -0.00274464   0.200053   
0.0811479   0.223326   -0.00747556   0.196226   
0.0842558   0.218918   -0.0114767   0.192287   
0.0872362   0.214198   -0.0148048   0.188315   
0.0899938   0.209277   -0.0175142   0.184343   
0.0925568   0.204309   -0.0196817   0.180446   
0.0946642   0.198783   -0.0213257   0.176133   
0.0978332   0.18912   -0.0231356   0.168645   
0.0786875   0.0278612   0.0435119   0.102252   
0.0831183   0.0354325   0.0499026   0.112649   
0.0853387   0.0407267   0.0538054   0.118957   
0.0873419   0.0464772   0.0578517   0.125578   
0.0890031   0.0530438   0.0620199   0.13249   
0.0903297   0.0605697   0.0662952   0.139793   
0.0911963   0.0691272   0.0705524   0.147391   
0.0915361   0.0788004   0.0746761   0.155257   
0.0912659   0.0896318   0.0784961   0.163303   
0.0903348   0.101623   0.0818153   0.171432   
0.0887216   0.11471   0.084403   0.179511   
0.0864547   0.128747   0.0860134   0.187388   
0.0836243   0.143494   0.0864047   0.194888   
0.0803846   0.158609   0.085367   0.20182   
0.0769562   0.173669   0.0827569   0.208001   
0.073602   0.188182   0.0785249   0.213255   
0.0706042   0.201648   0.0727398   0.217447   
0.0682273   0.213597   0.0655901   0.22048   
0.0666795   0.223646   0.0573694   0.222317   
0.0660892   0.231549   0.0484431   0.22298   
0.0664898   0.237197   0.0392044   0.222538   
0.0678264   0.240633   0.0300289   0.221108   
0.0699703   0.242016   0.0212399   0.218831   
0.0727499   0.24159   0.0130855   0.215862   
0.0759732   0.23965   0.00573098   0.212358   
0.0794527   0.2365   -0.000735536   0.208461   
0.0830219   0.232434   -0.0062922   0.204303   
0.0865432   0.227712   -0.0109654   0.199991   
0.0899086   0.22256   -0.0148153   0.195614   
0.0930513   0.217162   -0.0179229   0.191244   
0.0959024   0.211658   -0.0203709   0.18693   
0.0984617   0.206163   -0.0222451   0.182711   
0.100551   0.200168   -0.0235673   0.178093   
0.103558   0.190008   -0.0248505   0.170303   
0.0783202   0.0245412   0.0409305   0.0991976   
0.0833525   0.0316552   0.0474399   0.109831   
0.0860232   0.0366849   0.0515079   0.116401   
0.0884783   0.0422108   0.055777   0.123323   
0.0906428   0.0486198   0.060258   0.130637   
0.0924818   0.0560593   0.064935   0.138422   
0.0938658   0.0646452   0.069693   0.146605   
0.0946942   0.0744952   0.0744121   0.155157   
0.0948566   0.0856962   0.0789111   0.163993   
0.094265   0.098289   0.0829649   0.173006   
0.0928643   0.112242   0.0862998   0.182049   
0.090658   0.127425   0.0886086   0.190941   
0.0877226   0.143582   0.0895743   0.199465   
0.0842295   0.160328   0.0889095   0.207389   
0.0804322   0.177139   0.0863996   0.214463   
0.0766638   0.193412   0.0819551   0.220472   
0.0732841   0.208493   0.0756384   0.22522   
0.0706345   0.221783   0.0676815   0.228591   
0.0689862   0.232801   0.0584599   0.230538   
0.0684916   0.241227   0.0484462   0.231086   
0.0691783   0.246965   0.0381433   0.230342   
0.0709496   0.250096   0.0280228   0.228459   
0.073624   0.250864   0.0184726   0.225626   
0.0769653   0.24961   0.00977193   0.222045   
0.080727   0.246718   0.0020885   0.217906   
0.084681   0.242578   -0.00451134   0.213387   
0.0886319   0.237539   -0.0100372   0.208636   
0.0924336   0.231909   -0.0145552   0.203778   
0.0959742   0.225934   -0.0181602   0.198904   
0.0991974   0.219814   -0.0209675   0.194093   
0.102045   0.213683   -0.0230837   0.189385   
0.104528   0.207653   -0.0246178   0.18482   
0.106489   0.201176   -0.0255901   0.17987   
0.109138   0.19036   -0.0263396   0.171621   
0.0774663   0.0213561   0.0380551   0.0956415   
0.0831615   0.0278371   0.0445922   0.106495   
0.0862607   0.0324994   0.0487558   0.113248   
0.0892285   0.0377312   0.0532074   0.120465   
0.0919433   0.043873   0.0579585   0.128149   
0.0943816   0.0511167   0.0630159   0.136416   
0.0963813   0.0596083   0.0682727   0.145192   
0.0978218   0.0695184   0.0736183   0.154468   
0.0985507   0.0809866   0.0788638   0.164159   
0.098437   0.0941164   0.0837632   0.174161   
0.0973763   0.108928   0.0879951   0.184309   
0.0953269   0.125328   0.0911808   0.194394   
0.0923436   0.143064   0.0929075   0.204154   
0.0885932   0.161692   0.0927767   0.213286   
0.0843867   0.180601   0.0904738   0.221481   
0.0801254   0.198996   0.0858322   0.228421   
0.0762849   0.216057   0.0789065   0.233874   
0.0733147   0.230973   0.0699777   0.237657   
0.0715595   0.243103   0.0595398   0.239705   
0.0712175   0.252084   0.0482151   0.240083   
0.0722896   0.257802   0.0366608   0.238921   
0.0746266   0.260434   0.0254686   0.236444   
0.0779565   0.260341   0.0151029   0.232903   
0.0819637   0.257997   0.00587128   0.228556   
0.0863333   0.253919   -0.00207445   0.22365   
0.0907882   0.248585   -0.00870468   0.218394   
0.0951142   0.242425   -0.0140833   0.212964   
0.0991546   0.23578   -0.0183262   0.207491   
0.102813   0.22892   -0.0215777   0.202079   
0.106039   0.222042   -0.0239879   0.196795   
0.108809   0.215284   -0.025697   0.191684   
0.111133   0.20873   -0.0268281   0.186765   
0.112902   0.201817   -0.0274065   0.181507   
0.115096   0.190486   -0.0275306   0.172863   
0.0760482   0.0181465   0.0348595   0.0915323   
0.0823561   0.0239443   0.0413069   0.102483   
0.0859244   0.028187   0.0455059   0.109398   
0.0894211   0.033031   0.0500703   0.116853   
0.0927499   0.0388092   0.0550369   0.124885   
0.0958664   0.0457339   0.060427   0.133611   
0.0985998   0.053998   0.0661615   0.142988   
0.100797   0.0638246   0.0721436   0.153017   
0.102266   0.075429   0.0781943   0.163637   
0.102817   0.0889909   0.0840512   0.174742   
0.102278   0.104622   0.089352   0.186165   
0.100543   0.12229   0.0936344   0.197663   
0.0976069   0.141778   0.0963637   0.20892   
0.0936384   0.162612   0.0969909   0.219558   
0.0889621   0.184022   0.0950439   0.229145   
0.0841157   0.205049   0.0902521   0.237296   
0.0796999   0.224529   0.0826211   0.243617   
0.0763297   0.24142   0.0725138   0.247905   
0.0744844   0.254885   0.0605763   0.250075   
0.074375   0.264403   0.0476512   0.250175   
0.0759876   0.269949   0.0346067   0.248449   
0.0790582   0.271804   0.0221996   0.245189   
0.0832069   0.270521   0.010981   0.240744   
0.0880014   0.266775   0.0012665   0.23546   
0.093041   0.261227   -0.00682711   0.229633   
0.0980085   0.254491   -0.0133445   0.223525   
0.102666   0.247051   -0.0184203   0.217321   
0.106873   0.239296   -0.0222444   0.211174   
0.110547   0.231496   -0.0250147   0.205176   
0.113672   0.223847   -0.0269261   0.199396   
0.11625   0.216463   -0.0281472   0.193864   
0.11831   0.209412   -0.0288198   0.188591   
0.119776   0.202093   -0.0289621   0.183026   
0.121352   0.190277   -0.0284382   0.173975   
0.0739607   0.0150753   0.0313952   0.08683   
0.080851   0.0201009   0.0376189   0.0977819   
0.0848673   0.0238492   0.0417592   0.104779   
0.0889084   0.0282229   0.0463525   0.112417   
0.0928843   0.0335243   0.0514431   0.120734   
0.0967518   0.0399909   0.0570873   0.129876   
0.100328   0.0478581   0.063235   0.139823   
0.103439   0.0574143   0.0698274   0.150615   
0.105848   0.0689538   0.0767059   0.162207   
0.1073   0.0827756   0.083618   0.174526   
0.107532   0.0991   0.090166   0.187396   
0.106334   0.118032   0.0958086   0.200563   
0.103615   0.139418   0.0998606   0.213645   
0.0994697   0.162771   0.101568   0.226155   
0.0943069   0.187227   0.100231   0.237549   
0.088727   0.211458   0.0953646   0.247201   
0.0836075   0.234038   0.086926   0.254686   
0.0797619   0.253401   0.0753312   0.259589   
0.0778071   0.268381   0.061502   0.261817   
0.0780787   0.278451   0.0465942   0.26154   
0.080432   0.283547   0.0317821   0.259021   
0.0844805   0.284226   0.0180277   0.254725   
0.0896454   0.281328   0.00596023   0.249136   
0.0953463   0.275764   -0.00411442   0.242682   
0.101102   0.268437   -0.0121769   0.235766   
0.106539   0.260057   -0.0183713   0.228662   
0.111442   0.251203   -0.0229487   0.221602   
0.115684   0.24226   -0.0261789   0.214716   
0.119235   0.233505   -0.0283307   0.208105   
0.122108   0.225096   -0.0296371   0.201811   
0.124357   0.217128   -0.030298   0.195862   
0.126024   0.209626   -0.0304632   0.19024   
0.127078   0.20197   -0.0301423   0.184392   
0.127883   0.18979   -0.0289498   0.174979   
0.0711102   0.0121505   0.0276879   0.081487   
0.07849   0.0163684   0.0335416   0.0922983   
0.082923   0.0195664   0.037527   0.0993045   
0.0874885   0.0233951   0.0420343   0.10703   
0.0921196   0.0281086   0.0471344   0.11555   
0.0967826   0.0339722   0.0529082   0.125024   
0.101298   0.0412558   0.0593609   0.135482   
0.105478   0.0503083   0.0664775   0.146996   
0.109055   0.06153   0.0741578   0.159583   
0.111694   0.0753358   0.0821768   0.173192   
0.113037   0.0921478   0.0901451   0.187699   
0.112716   0.112226   0.097441   0.202816   
0.110491   0.135623   0.10322   0.218129   
0.10637   0.161911   0.106442   0.233017   
0.10066   0.19005   0.106059   0.246712   
0.0942519   0.218467   0.101301   0.258468   
0.0881698   0.244898   0.09191   0.267392   
0.0836818   0.267376   0.0784921   0.273132   
0.0817284   0.284253   0.0622457   0.275447   
0.0825429   0.294646   0.0448504   0.274487   
0.0859658   0.29887   0.0279271   0.270851   
0.0912825   0.297789   0.0126988   0.265163   
0.097677   0.292648   -0.000122705   0.258067   
0.104398   0.284801   -0.0103472   0.250198   
0.110836   0.275311   -0.0180926   0.241968   
0.116647   0.265084   -0.023693   0.23375   
0.121614   0.254688   -0.0275238   0.225732   
0.125701   0.244536   -0.0299704   0.218071   
0.12892   0.23484   -0.0313591   0.210819   
0.131355   0.225726   -0.0319663   0.204014   
0.133099   0.217237   -0.0320071   0.197653   
0.134227   0.209359   -0.0316366   0.191701   
0.134736   0.201439   -0.0308433   0.185592   
0.134595   0.189004   -0.0290089   0.175852   
0.0674215   0.00947149   0.0238205   0.0754919   
0.0751375   0.0128412   0.0291478   0.0859911   
0.0799251   0.0154674   0.0328539   0.0928933   
0.084945   0.0186744   0.0371524   0.100593   
0.0901993   0.0227123   0.0421064   0.109188   
0.095654   0.0278261   0.0478483   0.118872   
0.101162   0.0343264   0.0544286   0.129719   
0.106545   0.0426167   0.0619138   0.141871   
0.111507   0.0531785   0.0702745   0.155395   
0.11568   0.0666136   0.0793808   0.170345   
0.11855   0.0835148   0.0888779   0.186617   
0.1196   0.104502   0.0981434   0.204017   
0.118305   0.129838   0.106152   0.222032   
0.114418   0.159349   0.111549   0.239961   
0.108297   0.191959   0.112752   0.256763   
0.100733   0.225486   0.10839   0.27115   
0.0935382   0.257244   0.0979666   0.282231   
0.0882943   0.283778   0.0820268   0.288886   
0.0862575   0.302776   0.0625766   0.291109   
0.0880588   0.313422   0.0420181   0.289283   
0.092973   0.316078   0.022611   0.284071   
0.0999767   0.312356   0.00591636   0.276475   
0.107866   0.304277   -0.00743546   0.267515   
0.115611   0.293504   -0.0174141   0.257853   
0.122636   0.281537   -0.024457   0.248134   
0.12856   0.269246   -0.0290968   0.238635   
0.133333   0.257285   -0.0319112   0.229616   
0.136963   0.245939   -0.0333706   0.221136   
0.139593   0.23539   -0.0338731   0.213256   
0.141347   0.225664   -0.0337078   0.205949   
0.142391   0.216758   -0.0331002   0.199203   
0.142813   0.208599   -0.032192   0.192944   
0.142647   0.200514   -0.0309465   0.186613   
0.141397   0.187965   -0.0285299   0.176602   
0.062773   0.00705915   0.01985   0.0687693   
0.0706798   0.00963692   0.0245132   0.0788039   
0.0756808   0.0116459   0.0278387   0.0854799   
0.0810643   0.014225   0.0317759   0.093004   
0.0868282   0.0174991   0.0364184   0.101513   
0.0930094   0.0217532   0.041912   0.111223   
0.0994899   0.0272822   0.0483874   0.122279   
0.10613   0.0345243   0.0559789   0.134879   
0.112679   0.0440634   0.0647905   0.14922   
0.118701   0.0566027   0.0748062   0.165417   
0.123656   0.0730888   0.0858388   0.183575   
0.126712   0.094402   0.097299   0.203487   
0.127114   0.121496   0.108118   0.22482   
0.12418   0.154527   0.116474   0.246594   
0.11776   0.192728   0.120095   0.267553   
0.109163   0.233446   0.116726   0.286015   
0.100114   0.272002   0.105042   0.299797   
0.0937327   0.304062   0.0860773   0.308167   
0.0921004   0.325649   0.0623122   0.310138   
0.0951991   0.335569   0.0376587   0.306559   
0.102303   0.335373   0.0154066   0.298904   
0.111462   0.327848   -0.00266784   0.288768   
0.120915   0.315676   -0.0160227   0.277258   
0.129626   0.301468   -0.0251993   0.265543   
0.13685   0.286625   -0.0309727   0.254037   
0.142527   0.27225   -0.0342552   0.243211   
0.146645   0.258736   -0.0357549   0.233113   
0.149456   0.246345   -0.0360657   0.223847   
0.151148   0.235073   -0.0355917   0.215348   
0.151959   0.22489   -0.0346333   0.207585   
0.15208   0.215697   -0.0333897   0.200486   
0.151633   0.207375   -0.0319836   0.193962   
0.150656   0.199232   -0.0303397   0.187447   
0.148148   0.186708   -0.0274511   0.177223   
0.0572252   0.00502848   0.0159543   0.0614481   
0.0649651   0.00679546   0.0198012   0.0707208   
0.0700804   0.00828091   0.0226065   0.0770238   
0.0756073   0.010176   0.0260614   0.0841916   
0.0817305   0.0126919   0.0301928   0.0924038   
0.0884536   0.0159959   0.0352099   0.101903   
0.0957719   0.0204107   0.041271   0.112889   
0.103619   0.0263651   0.0486233   0.12567   
0.11179   0.0344528   0.0574781   0.140512   
0.119981   0.0455693   0.0680498   0.157788   
0.127486   0.0607816   0.0803431   0.17766   
0.133495   0.081673   0.0940921   0.200371   
0.136538   0.109602   0.108234   0.225464   
0.135378   0.146008   0.120825   0.252339   
0.129343   0.190189   0.128465   0.278946   
0.118906   0.239605   0.127229   0.302688   
0.108069   0.288405   0.114539   0.321008   
0.100301   0.327802   0.090582   0.330531   
0.0988401   0.352667   0.0607051   0.332177   
0.104721   0.361264   0.0307766   0.326324   
0.114967   0.356682   0.00541016   0.315469   
0.126732   0.343385   -0.013298   0.30164   
0.137909   0.326285   -0.0258198   0.287199   
0.146972   0.307864   -0.0332615   0.27286   
0.153889   0.290154   -0.0371554   0.25954   
0.158575   0.273689   -0.0386206   0.247237   
0.161517   0.258885   -0.0385943   0.236143   
0.162985   0.245641   -0.0376476   0.226097   
0.163384   0.233888   -0.0362002   0.217062   
0.162948   0.223426   -0.0344909   0.208886   
0.16194   0.21411   -0.0326887   0.201496   
0.160468   0.205753   -0.0308698   0.194747   
0.158571   0.197663   -0.0289228   0.188099   
0.154693   0.185304   -0.0257185   0.177726   
0.0504942   0.00330483   0.0121081   0.0532309   
0.0580325   0.00449934   0.0151256   0.0617516   
0.0629261   0.00538584   0.0173811   0.0674988   
0.0684489   0.00673742   0.0202017   0.0741202   
0.0746136   0.00846915   0.0236723   0.081781   
0.081617   0.0108455   0.0279539   0.0907636   
0.0894767   0.0140759   0.0332833   0.101331   
0.0982498   0.0185572   0.0399418   0.113843   
0.107934   0.0248969   0.0483081   0.128777   
0.118244   0.0339158   0.0587648   0.146566   
0.128867   0.0470681   0.0717411   0.167919   
0.138552   0.0660313   0.0873193   0.193086   
0.146088   0.0937651   0.105087   0.222634   
0.148828   0.132459   0.12286   0.255471   
0.144726   0.18512   0.136478   0.290348   
0.133955   0.247603   0.139319   0.322975   
0.118993   0.310974   0.125401   0.347904   
0.109048   0.362326   0.0957856   0.362195   
0.109448   0.388989   0.0569557   0.361177   
0.118697   0.392652   0.0201798   0.350541   
0.133188   0.379235   -0.00776031   0.333511   
0.147956   0.358378   -0.0260479   0.315178   
0.159715   0.33464   -0.0361378   0.296586   
0.168419   0.312095   -0.0408548   0.279666   
0.173718   0.291447   -0.0421157   0.264218   
0.176643   0.273395   -0.0414953   0.250639   
0.177578   0.257588   -0.0398195   0.238538   
0.177223   0.243879   -0.0376804   0.227867   
0.175906   0.231893   -0.0353606   0.218351   
0.173978   0.221387   -0.0330485   0.209859   
0.171649   0.212108   -0.0308298   0.202229   
0.169044   0.203846   -0.0287398   0.195315   
0.166147   0.195909   -0.026624   0.188579   
0.160845   0.183829   -0.0233053   0.178117   
0.0432088   0.00213072   0.0088217   0.0448658   
0.0496578   0.00259889   0.0107884   0.0518919   
0.0543336   0.00320255   0.012357   0.0569779   
0.0594008   0.00394369   0.0145202   0.0627874   
0.0653456   0.00506614   0.0171647   0.0696315   
0.0721695   0.00655418   0.0205319   0.0777372   
0.0801064   0.00866142   0.0247988   0.0874252   
0.0893099   0.0116568   0.030328   0.0991485   
0.0999178   0.0160333   0.037514   0.113404   
0.112104   0.0225944   0.047013   0.131056   
0.125526   0.0325866   0.0594743   0.152774   
0.139928   0.0483396   0.075893   0.180088   
0.15303   0.072888   0.0964971   0.213335   
0.162309   0.111943   0.120835   0.253987   
0.162339   0.16788   0.144014   0.299173   