<VTKFile type="UnstructuredGrid"  version="0.1"   > 
<UnstructuredGrid> 
<Piece  NumberOfPoints="  8385" NumberOfCells=" 8192"> 
<Points> 
<DataArray  type="Float64"  NumberOfComponents="3"  format="ascii" > 
100.000000 0.000000 0.0 
96.899414 0.000000 0.0 
93.847656 0.000000 0.0 
90.844727 0.000000 0.0 
87.890625 0.000000 0.0 
84.985352 0.000000 0.0 
82.128906 0.000000 0.0 
79.321289 0.000000 0.0 
76.562500 0.000000 0.0 
73.852539 0.000000 0.0 
71.191406 0.000000 0.0 
68.579102 0.000000 0.0 
66.015625 0.000000 0.0 
63.500977 0.000000 0.0 
61.035156 0.000000 0.0 
58.618164 0.000000 0.0 
56.250000 0.000000 0.0 
53.930664 0.000000 0.0 
51.660156 0.000000 0.0 
49.438477 0.000000 0.0 
47.265625 0.000000 0.0 
45.141602 0.000000 0.0 
43.066406 0.000000 0.0 
41.040039 0.000000 0.0 
39.062500 0.000000 0.0 
37.133789 0.000000 0.0 
35.253906 0.000000 0.0 
33.422852 0.000000 0.0 
31.640625 0.000000 0.0 
29.907227 0.000000 0.0 
28.222656 0.000000 0.0 
26.586914 0.000000 0.0 
25.000000 0.000000 0.0 
23.461914 0.000000 0.0 
21.972656 0.000000 0.0 
20.532227 0.000000 0.0 
19.140625 0.000000 0.0 
17.797852 0.000000 0.0 
16.503906 0.000000 0.0 
15.258789 0.000000 0.0 
14.062500 0.000000 0.0 
12.915039 0.000000 0.0 
11.816406 0.000000 0.0 
10.766602 0.000000 0.0 
9.765625 0.000000 0.0 
8.813477 0.000000 0.0 
7.910156 0.000000 0.0 
7.055664 0.000000 0.0 
6.250000 0.000000 0.0 
5.493164 0.000000 0.0 
4.785156 0.000000 0.0 
4.125977 0.000000 0.0 
3.515625 0.000000 0.0 
2.954102 0.000000 0.0 
2.441406 0.000000 0.0 
1.977539 0.000000 0.0 
1.562500 0.000000 0.0 
1.196289 0.000000 0.0 
0.878906 0.000000 0.0 
0.610352 0.000000 0.0 
0.390625 0.000000 0.0 
0.219727 0.000000 0.0 
0.097656 0.000000 0.0 
0.024414 0.000000 0.0 
0.000000 0.000000 0.0 
0.000000 0.024414 0.0 
0.000000 0.097656 0.0 
0.000000 0.219727 0.0 
0.000000 0.390625 0.0 
0.000000 0.610352 0.0 
0.000000 0.878906 0.0 
0.000000 1.196289 0.0 
0.000000 1.562500 0.0 
0.000000 1.977539 0.0 
0.000000 2.441406 0.0 
0.000000 2.954102 0.0 
0.000000 3.515625 0.0 
0.000000 4.125977 0.0 
0.000000 4.785156 0.0 
0.000000 5.493164 0.0 
0.000000 6.250000 0.0 
0.000000 7.055664 0.0 
0.000000 7.910156 0.0 
0.000000 8.813477 0.0 
0.000000 9.765625 0.0 
0.000000 10.766602 0.0 
0.000000 11.816406 0.0 
0.000000 12.915039 0.0 
0.000000 14.062500 0.0 
0.000000 15.258789 0.0 
0.000000 16.503906 0.0 
0.000000 17.797852 0.0 
0.000000 19.140625 0.0 
0.000000 20.532227 0.0 
0.000000 21.972656 0.0 
0.000000 23.461914 0.0 
0.000000 25.000000 0.0 
0.000000 26.586914 0.0 
0.000000 28.222656 0.0 
0.000000 29.907227 0.0 
0.000000 31.640625 0.0 
0.000000 33.422852 0.0 
0.000000 35.253906 0.0 
0.000000 37.133789 0.0 
0.000000 39.062500 0.0 
0.000000 41.040039 0.0 
0.000000 43.066406 0.0 
0.000000 45.141602 0.0 
0.000000 47.265625 0.0 
0.000000 49.438477 0.0 
0.000000 51.660156 0.0 
0.000000 53.930664 0.0 
0.000000 56.250000 0.0 
0.000000 58.618164 0.0 
0.000000 61.035156 0.0 
0.000000 63.500977 0.0 
0.000000 66.015625 0.0 
0.000000 68.579102 0.0 
0.000000 71.191406 0.0 
0.000000 73.852539 0.0 
0.000000 76.562500 0.0 
0.000000 79.321289 0.0 
0.000000 82.128906 0.0 
0.000000 84.985352 0.0 
0.000000 87.890625 0.0 
0.000000 90.844727 0.0 
0.000000 93.847656 0.0 
0.000000 96.899414 0.0 
0.000000 100.000000 0.0 
100.000000 0.781250 0.0 
96.947341 0.781344 0.0 
93.942472 0.781626 0.0 
90.985393 0.782095 0.0 
88.076103 0.782752 0.0 
85.214602 0.783597 0.0 
82.400891 0.784630 0.0 
79.634970 0.785850 0.0 
76.916838 0.787258 0.0 
74.246495 0.788854 0.0 
71.623942 0.790638 0.0 
69.049179 0.792609 0.0 
66.522205 0.794768 0.0 
64.043020 0.797115 0.0 
61.611626 0.799650 0.0 
59.228020 0.802372 0.0 
56.892204 0.805283 0.0 
54.604178 0.808381 0.0 
52.363941 0.811666 0.0 
50.171494 0.815140 0.0 
48.026836 0.818801 0.0 
45.929968 0.822650 0.0 
43.880889 0.826687 0.0 
41.879600 0.830911 0.0 
39.926100 0.835323 0.0 
38.020390 0.839923 0.0 
36.162469 0.844711 0.0 
34.352338 0.849687 0.0 
32.589996 0.854850 0.0 
30.875444 0.860201 0.0 
29.208681 0.865740 0.0 
27.589708 0.871466 0.0 
26.018524 0.877380 0.0 
24.495130 0.883482 0.0 
23.019525 0.889772 0.0 
21.591710 0.896250 0.0 
20.211685 0.902915 0.0 
18.879449 0.909768 0.0 
17.595002 0.916809 0.0 
16.358345 0.924037 0.0 
15.169477 0.931454 0.0 
14.028399 0.939058 0.0 
12.935111 0.946850 0.0 
11.889612 0.954829 0.0 
10.891902 0.962996 0.0 
9.941982 0.971352 0.0 
9.039852 0.979894 0.0 
8.185511 0.988625 0.0 
7.378960 0.997543 0.0 
6.620198 1.006649 0.0 
5.909225 1.015943 0.0 
5.246042 1.025425 0.0 
4.630649 1.035094 0.0 
4.063045 1.044951 0.0 
3.543231 1.054996 0.0 
3.071206 1.065229 0.0 
2.646971 1.075649 0.0 
2.270525 1.086257 0.0 
1.941869 1.097053 0.0 
1.661002 1.108037 0.0 
1.427925 1.119208 0.0 
1.242637 1.130567 0.0 
1.105139 1.142114 0.0 
1.015430 1.153849 0.0 
0.973511 1.165771 0.0 
0.955627 1.201729 0.0 
0.938025 1.285571 0.0 
0.920705 1.417296 0.0 
0.903666 1.596904 0.0 
0.886909 1.824395 0.0 
0.870433 2.099770 0.0 
0.854240 2.423029 0.0 
0.838327 2.794170 0.0 
0.822697 3.213196 0.0 
0.807348 3.680104 0.0 
0.792281 4.194896 0.0 
0.777495 4.757571 0.0 
0.762991 5.368130 0.0 
0.748768 6.026572 0.0 
0.734828 6.732897 0.0 
0.721169 7.487106 0.0 
0.707791 8.289199 0.0 
0.694695 9.139174 0.0 
0.681881 10.037033 0.0 
0.669348 10.982776 0.0 
0.657097 11.976402 0.0 
0.645128 13.017911 0.0 
0.633440 14.107303 0.0 
0.622034 15.244579 0.0 
0.610910 16.429739 0.0 
0.600067 17.662781 0.0 
0.589506 18.943708 0.0 
0.579226 20.272517 0.0 
0.569228 21.649210 0.0 
0.559512 23.073786 0.0 
0.550077 24.546246 0.0 
0.540924 26.066589 0.0 
0.532053 27.634816 0.0 
0.523463 29.250926 0.0 
0.515155 30.914919 0.0 
0.507128 32.626796 0.0 
0.499383 34.386556 0.0 
0.491920 36.194199 0.0 
0.484738 38.049726 0.0 
0.477839 39.953136 0.0 
0.471220 41.904430 0.0 
0.464883 43.903607 0.0 
0.458828 45.950668 0.0 
0.453055 48.045611 0.0 
0.447563 50.188439 0.0 
0.442353 52.379149 0.0 
0.437424 54.617743 0.0 
0.432777 56.904221 0.0 
0.428412 59.238581 0.0 
0.424328 61.620826 0.0 
0.420526 64.050953 0.0 
0.417006 66.528964 0.0 
0.413767 69.054858 0.0 
0.410810 71.628636 0.0 
0.408135 74.250297 0.0 
0.405741 76.919842 0.0 
0.403628 79.637270 0.0 
0.401798 82.402581 0.0 
0.400249 85.215776 0.0 
0.398982 88.076854 0.0 
0.397996 90.985815 0.0 
0.397292 93.942660 0.0 
0.396869 96.947388 0.0 
0.396729 100.000000 0.0 
100.000000 1.562500 0.0 
96.994516 1.562685 0.0 
94.035804 1.563239 0.0 
91.123864 1.564163 0.0 
88.258696 1.565456 0.0 
85.440299 1.567119 0.0 
82.668674 1.569152 0.0 
79.943821 1.571554 0.0 
77.265739 1.574326 0.0 
74.634430 1.577467 0.0 
72.049892 1.580977 0.0 
69.512126 1.584858 0.0 
67.021132 1.589108 0.0 
64.576909 1.593727 0.0 
62.179458 1.598716 0.0 
59.828779 1.604074 0.0 
57.524872 1.609802 0.0 
55.267736 1.615900 0.0 
53.057373 1.622367 0.0 
50.893781 1.629204 0.0 
48.776960 1.636410 0.0 
46.706912 1.643986 0.0 
44.683635 1.651931 0.0 
42.707130 1.660246 0.0 
40.777397 1.668930 0.0 
38.894436 1.677984 0.0 
37.058246 1.687407 0.0 
35.268828 1.697201 0.0 
33.526182 1.707363 0.0 
31.830308 1.717895 0.0 
30.181205 1.728797 0.0 
28.578874 1.740068 0.0 
27.023315 1.751709 0.0 
25.514528 1.763719 0.0 
24.052513 1.776099 0.0 
22.637269 1.788849 0.0 
21.268797 1.801968 0.0 
19.947097 1.815456 0.0 
18.672168 1.829314 0.0 
17.444012 1.843542 0.0 
16.262627 1.858139 0.0 
15.128013 1.873106 0.0 
14.040172 1.888442 0.0 
12.999102 1.904148 0.0 
12.004805 1.920223 0.0 
11.057279 1.936668 0.0 
10.156524 1.953483 0.0 
9.302542 1.970667 0.0 
8.495331 1.988220 0.0 
7.734892 2.006143 0.0 
7.021224 2.024436 0.0 
6.354329 2.043098 0.0 
5.734205 2.062130 0.0 
5.160853 2.081531 0.0 
4.634273 2.101302 0.0 
4.154465 2.121443 0.0 
3.721428 2.141953 0.0 
3.335163 2.162832 0.0 
2.995670 2.184081 0.0 
2.702948 2.205700 0.0 
2.456999 2.227688 0.0 
2.257821 2.250046 0.0 
2.105415 2.272773 0.0 
1.999781 2.295870 0.0 
1.940918 2.319336 0.0 
1.905718 2.366465 0.0 
1.871073 2.460551 0.0 
1.836982 2.601594 0.0 
1.803446 2.789593 0.0 
1.770464 3.024548 0.0 
1.738036 3.306460 0.0 
1.706162 3.635329 0.0 
1.674843 4.011154 0.0 
1.644078 4.433936 0.0 
1.613867 4.903674 0.0 
1.584211 5.420369 0.0 
1.555109 5.984020 0.0 
1.526561 6.594628 0.0 
1.498568 7.252192 0.0 
1.471129 7.956713 0.0 
1.444244 8.708191 0.0 
1.417914 9.506625 0.0 
1.392138 10.352015 0.0 
1.366916 11.244363 0.0 
1.342249 12.183666 0.0 
1.318136 13.169926 0.0 
1.294577 14.203143 0.0 
1.271573 15.283316 0.0 
1.249123 16.410446 0.0 
1.227227 17.584532 0.0 
1.205885 18.805575 0.0 
1.185098 20.073575 0.0 
1.164865 21.388531 0.0 
1.145187 22.750443 0.0 
1.126063 24.159312 0.0 
1.107493 25.615138 0.0 
1.089478 27.117920 0.0 
1.072016 28.667659 0.0 
1.055110 30.264354 0.0 
1.038757 31.908005 0.0 
1.022959 33.598614 0.0 
1.007715 35.336179 0.0 
0.993025 37.120700 0.0 
0.978890 38.952178 0.0 
0.965309 40.830612 0.0 
0.952283 42.756003 0.0 
0.939810 44.728351 0.0 
0.927892 46.747655 0.0 
0.916529 48.813915 0.0 
0.905719 50.927132 0.0 
0.895464 53.087306 0.0 
0.885764 55.294436 0.0 
0.876617 57.548523 0.0 
0.868025 59.849566 0.0 
0.859988 62.197566 0.0 
0.852504 64.592522 0.0 
0.845575 67.034435 0.0 
0.839201 69.523305 0.0 
0.833380 72.059131 0.0 
0.828114 74.641913 0.0 
0.823402 77.271652 0.0 
0.819245 79.948348 0.0 
0.815642 82.672000 0.0 
0.812593 85.442609 0.0 
0.810099 88.260174 0.0 
0.808159 91.124696 0.0 
0.806773 94.036174 0.0 
0.805941 96.994609 0.0 
0.805664 100.000000 0.0 
100.000000 2.343750 0.0 
97.040939 2.344023 0.0 
94.127652 2.344841 0.0 
91.260140 2.346204 0.0 
88.438404 2.348113 0.0 
85.662442 2.350567 0.0 
82.932255 2.353567 0.0 
80.247843 2.357112 0.0 
77.609205 2.361202 0.0 
75.016343 2.365838 0.0 
72.469255 2.371019 0.0 
69.967943 2.376746 0.0 
67.512405 2.383018 0.0 
65.102642 2.389835 0.0 
62.738654 2.397197 0.0 
60.420441 2.405106 0.0 
58.148003 2.413559 0.0 
55.921339 2.422558 0.0 
53.740451 2.432102 0.0 
51.605337 2.442192 0.0 
49.515998 2.452826 0.0 
47.472434 2.464007 0.0 
45.474645 2.475733 0.0 
43.522631 2.488004 0.0 
41.616392 2.500820 0.0 
[...]
<PointData  Vectors="sigma"> 
<DataArray  type="Float64"  Name="sigma" NumberOfComponents="3" format="ascii"> 
-0.339659   -0.000514922   0.00763218   
-0.345711   -0.0206888   0.110993   
-0.33613   0.00707751   -0.0131521   
-0.336387   2.81073e-05   -3.93677e-05   
-0.333557   3.43899e-05   -6.88044e-06   
-0.329122   3.95877e-05   3.33074e-05   
-0.322537   4.4736e-05   8.59084e-05   
-0.313198   5.03009e-05   0.000151626   
-0.300474   5.80184e-05   0.000231302   
-0.283745   6.8908e-05   0.000324897   
-0.262448   8.43468e-05   0.000431335   
-0.236125   0.000105257   0.000548488   
-0.204476   0.00013218   0.000673154   
-0.167396   0.000164998   0.000801226   
-0.125005   0.000202873   0.000927976   
-0.0776577   0.000244244   0.00104843   
-0.0259338   0.000286961   0.00115781   
0.0293958   0.000328531   0.00125194   
0.0874169   0.000366415   0.00132762   
0.147132   0.000398347   0.0013828   
0.207522   0.000422588   0.00141676   
0.267612   0.0004381   0.00142999   
0.326515   0.0004446   0.00142406   
0.383479   0.000442515   0.00140138   
0.437901   0.000432853   0.00136491   
0.489344   0.000417039   0.00131789   
0.537525   0.000396726   0.00126359   
0.582309   0.000373624   0.00120506   
0.623682   0.000349359   0.00114501   
0.66173   0.000325371   0.00108568   
0.696612   0.000302842   0.00102879   
0.728538   0.000282665   0.000975533   
0.757742   0.000265434   0.000926579   
0.784469   0.000251452   0.000882122   
0.808956   0.000240761   0.000841937   
0.831421   0.000233168   0.000805447   
0.852058   0.00022828   0.000771793   
0.87103   0.000225542   0.000739909   
0.888469   0.000224274   0.000708593   
0.904476   0.000223701   0.000676583   
0.919125   0.000222988   0.000642626   
0.932467   0.000221269   0.000605543   
0.944533   0.000217677   0.000564296   
0.955346   0.000211369   0.000518051   
0.96492   0.000201557   0.00046624   
0.97327   0.000187531   0.000408618   
0.980419   0.000168677   0.000345311   
0.986397   0.0001445   0.000276873   
0.991253   0.000114644   0.000204335   
0.99505   7.89653e-05   0.000129262   
0.997872   3.76727e-05   5.38229e-05   
0.999822   -8.4269e-06   -1.91651e-05   
1.00102   -5.76411e-05   -8.62678e-05   
1.00161   -0.000107183   -0.00014361   
1.00174   -0.000153225   -0.000187267   
1.00155   -0.000191331   -0.000213803   
1.00119   -0.000217374   -0.000220951   
1.00078   -0.000228232   -0.000207621   
1.00041   -0.000223937   -0.000175291   
1.00011   -0.000202704   -0.000122949   
0.999999   -0.00018256   -6.78642e-05   
0.99969   -0.000109664   3.45044e-05   
1.00083   -0.000272209   -6.73726e-05   
0.993252   0.000921591   0.00100099   
1.00013   -0.000349283   -3.48253e-05   
0.999756   -0.000136415   5.188e-05   
0.999601   -7.06617e-05   2.11732e-05   
0.999616   8.28697e-05   -6.07978e-06   
0.999584   0.000319317   -3.55524e-05   
0.999579   0.000646462   -6.04235e-05   
0.999587   0.00103372   -7.81256e-05   
0.999615   0.00141837   -8.61142e-05   
0.99966   0.00170209   -8.31766e-05   
0.999721   0.00175591   -6.91992e-05   
0.999792   0.00142901   -4.51773e-05   
0.999868   0.000560109   -1.29675e-05   
0.999946   -0.0010108   2.50818e-05   
1.00002   -0.00343254   6.6511e-05   
1.00009   -0.00683554   0.000109034   
1.00016   -0.0113271   0.000150679   
1.00022   -0.0169878   0.000189802   
1.00028   -0.0238685   0.000225035   
1.00033   -0.0319858   0.000255218   
1.00037   -0.0413181   0.000279348   
1.00041   -0.0517998   0.000296544   
1.00045   -0.0633163   0.000306027   
1.00048   -0.0756975   0.000307099   
1.00051   -0.0887125   0.000299129   
1.00053   -0.102063   0.00028154   
1.00055   -0.115375   0.000253804   
1.00056   -0.128195   0.00021544   
1.00056   -0.139981   0.000166023   
1.00055   -0.150098   0.000105191   
1.00054   -0.157809   3.26637e-05   
1.00052   -0.162275   -5.17353e-05   
1.0005   -0.162551   -0.000148044   
1.00046   -0.157586   -0.000256125   
1.00041   -0.14623   -0.000375613   
1.00035   -0.127243   -0.000505858   
1.00028   -0.0993122   -0.000645858   
1.0002   -0.0610794   -0.000794184   
1.00011   -0.0111745   -0.000948914   
1   0.051737   -0.00110757   
0.999885   0.128896   -0.00126707   
0.999758   0.221381   -0.00142373   
0.999624   0.330032   -0.00157334   
0.999486   0.455369   -0.00171123   
0.999346   0.597508   -0.00183255   
0.99921   0.756097   -0.0019325   
0.999083   0.930256   -0.00200671   
0.998969   1.11856   -0.00205163   
0.998874   1.31902   -0.00206485   
0.998801   1.52917   -0.0020454   
0.998753   1.74613   -0.00199383   
0.998732   1.96667   -0.0019122   
0.998736   2.18745   -0.00180381   
0.998765   2.40503   -0.00167288   
0.998814   2.61609   -0.00152405   
0.99888   2.81753   -0.001362   
0.998959   3.00649   -0.00119102   
0.999046   3.18045   -0.00101485   
0.999138   3.33722   -0.000836468   
0.999232   3.47491   -0.000657699   
0.999328   3.59189   -0.000481241   
0.99942   3.68674   -0.000304411   
0.999515   3.75815   -0.000135645   
0.999603   3.80502   4.19236e-05   
1.00725   3.82597   -0.00585657   
1.00725   3.82597   -0.00585657   
-0.265461   -0.00028538   0.0075598   
-0.271024   -0.0200276   0.109193   
-0.261536   0.00688352   -0.0126153   
-0.261508   7.06927e-05   0.000556376   
-0.258514   0.000100148   0.000949768   
-0.253996   0.000129728   0.00149601   
-0.24748   0.00016551   0.00222166   
-0.238443   0.000205383   0.00315002   
-0.226345   0.000250251   0.00429608   
-0.210654   0.000299319   0.00566441   
-0.19089   0.000351509   0.00724618   
-0.166661   0.000405032   0.00901722   
-0.137708   0.000457459   0.0109374   
-0.103937   0.000505887   0.0129518   
-0.0654394   0.000547166   0.0149934   
-0.0225059   0.000578229   0.0169885   
0.0243841   0.000596453   0.0188615   
0.0745854   0.000599998   0.0205424   
0.127326   0.000588053   0.0219714   
0.181754   0.000560956   0.0231046   
0.236991   0.000520169   0.0239157   
0.292179   0.000468101   0.0243978   
0.346531   0.000407844   0.0245613   
0.399358   0.000342845   0.0244322   
0.450096   0.000276582   0.0240477   
0.498314   0.000212282   0.0234528   
0.543717   0.000152699   0.0226957   
0.586134   9.9974e-05   0.0218249   
0.625505   5.5566e-05   0.0208859   
0.661862   2.02471e-05   0.0199188   
0.695309   -5.85918e-06   0.0189576   
0.725997   -2.32077e-05   0.0180286   
0.754113   -3.27458e-05   0.0171511   
0.779858   -3.58216e-05   0.0163368   
0.803434   -3.40931e-05   0.0155909   
0.825035   -2.94429e-05   0.0149126   
0.844839   -2.38986e-05   0.0142963   
0.863002   -1.95606e-05   0.0137325   
0.879658   -1.85343e-05   0.0132085   
0.894918   -2.28661e-05   0.0127101   
0.90887   -3.44811e-05   0.0122218   
0.921585   -5.51195e-05   0.0117284   
0.933117   -8.62703e-05   0.0112155   
0.943511   -0.000129099   0.0106706   
0.952805   -0.000184369   0.0100834   
0.961038   -0.000252358   0.00944711   
0.968247   -0.000332775   0.00875842   
0.974478   -0.000424673   0.00801822   
0.979784   -0.000526354   0.00723182   
0.984227   -0.000635227   0.00640896   
0.987881   -0.000747588   0.00556371   
0.990827   -0.000858351   0.00471397   
0.993154   -0.000960826   0.00388061   
0.994953   -0.00104679   0.00308614   
0.996315   -0.0011071   0.00235275   
0.997327   -0.00113307   0.00170006   
0.998066   -0.0011184   0.00114258   
0.998598   -0.00106125   0.000687725   
0.998976   -0.000965867   0.000334844   
0.999242   -0.000842958   7.51023e-05   
0.999414   -0.000707114   -0.000104325   
0.999555   -0.000581242   -0.000225663   
0.999503   -0.000454717   -0.000280869   
0.999956   -0.000448781   -0.000378469   
0.999506   -0.000323799   -0.0002567   
0.999394   -0.000392763   -0.000215441   
0.999326   -0.000455351   -0.000123459   
0.999231   -0.000562956   1.22646e-05   
0.999154   -0.000727384   0.00020704   
0.999093   -0.000977551   0.000470543   
0.999062   -0.00135253   0.000809605   
0.999064   -0.00190567   0.00122587   
0.9991   -0.00270544   0.0017149   
0.999168   -0.00383448   0.00226641   
0.99926   -0.00538688   0.00286527   
0.999369   -0.00746379   0.00349321   
0.999488   -0.010168   0.00413048   
0.99961   -0.0135983   0.00475726   
0.999731   -0.0178434   0.00535455   
0.999849   -0.0229765   0.00590448   
0.999963   -0.0290503   0.00639047   
1.00007   -0.0360913   0.00679709   
1.00017   -0.0440951   0.00710999   
1.00027   -0.053021   0.0073158   
1.00036   -0.0627867   0.00740201   
1.00044   -0.0732629   0.00735685   
1.00052   -0.0842675   0.00716915   
1.00059   -0.0955596   0.00682831   
1.00065   -0.106834   0.00632421   
1.0007   -0.117714   0.00564724   
1.00075   -0.127747   0.00478844   
1.00079   -0.136396   0.00373961   
1.00082   -0.143038   0.00249357   
1.00084   -0.146958   0.00104456   
1.00084   -0.147344   -0.000611381   
1.00084   -0.14329   -0.00247575   
1.00083   -0.1338   -0.00454688   
1.0008   -0.117789   -0.0068191   
1.00075   -0.0940999   -0.0092817   
1.00069   -0.0615201   -0.0119179   
1.00062   -0.0188087   -0.0147036   
1.00052   0.0352686   -0.0176065   
1.00041   0.101894   -0.0205854   
1.00028   0.182146   -0.0235892   
1.00014   0.276931   -0.0265578   
0.999982   0.38692   -0.0294223   
0.999814   0.512474   -0.0321077   
0.99964   0.653575   -0.0345352   
0.999465   0.80977   -0.0366264   
0.999295   0.980131   -0.0383084   
0.999137   1.16323   -0.0395183   
0.998996   1.35717   -0.0402084   
0.998878   1.5596   -0.04035   
0.998786   1.76783   -0.0399358   
0.998724   1.9789   -0.03898   
0.998691   2.18969   -0.037517   
0.998686   2.39709   -0.0355975   
0.998705   2.59803   -0.0332834   
0.998746   2.78967   -0.0306428   
0.998804   2.96937   -0.0277435   
0.998874   3.13479   -0.024649   
0.998952   3.28389   -0.0214145   
0.999035   3.41487   -0.0180842   
0.999121   3.5262   -0.0146915   
0.999207   3.61649   -0.0112545   
0.999291   3.68452   -0.00779064   
0.999379   3.72912   -0.00428953   
1.00656   3.74909   -0.00714995   
1.00656   3.74909   -0.00714995   
-0.191254   -0.000248531   0.00735792   
-0.196426   -0.0193498   0.10747   
-0.187053   0.00674785   -0.0120552   
-0.186813   0.000194988   0.00116443   
-0.183728   0.000277483   0.00189415   
-0.179206   0.000375139   0.00289534   
-0.172835   0.00049009   0.00421726   
-0.164166   0.000620651   0.0058999   
-0.152734   0.000763602   0.00797087   
-0.138085   0.000914294   0.0104395   
-0.119805   0.00106575   0.0132925   
-0.0975591   0.00120944   0.0164908   
-0.0711217   0.00133558   0.0199678   
-0.0404036   0.00143407   0.0236312   
-0.00547407   0.00149551   0.0273674   
0.0334318   0.00151233   0.0310488   
0.0759175   0.00147978   0.0345438   
0.121443   0.0013966   0.0377265   
0.169356   0.00126529   0.0404873   
0.218926   0.00109189   0.0427412   
0.269395   0.00088531   0.0444325   
0.320008   0.000656427   0.0455383   
0.370064   0.000416971   0.0460663   
0.418935   0.000178478   0.0460522   
0.466096   -4.86157e-05   0.0455535   
0.51113   -0.000255634   0.0446435   
0.553736   -0.000436065   0.0434039   
0.593722   -0.000585704   0.041919   
0.630994   -0.000702602   0.0402703   
0.665542   -0.000786856   0.0385323   
0.697425   -0.000840322   0.0367693   
0.72675   -0.000866275   0.0350342   
0.753661   -0.000869078   0.0333672   
0.778323   -0.000853862   0.0317964   
0.800908   -0.00082625   0.0303379   
0.821586   -0.000792107   0.0289974   
0.840519   -0.000757339   0.0277719   
0.857856   -0.000727712   0.0266504   
0.873727   -0.000708697   0.0256168   
0.888249   -0.000705335   0.0246506   
0.901517   -0.000722106   0.0237292   
0.913614   -0.000762803   0.0228295   
0.924609   -0.000830403   0.0219289   
0.934561   -0.000926934   0.0210071   
0.943524   -0.00105333   0.0200473   
0.951546   -0.00120931   0.0190369   
0.958677   -0.00139317   0.0179686   
0.964966   -0.00160177   0.0168405   
0.970466   -0.00183033   0.015657   
0.975233   -0.00207257   0.0144282   
0.979328   -0.00232073   0.0131694   
0.982814   -0.00256586   0.0119008   
0.985756   -0.00279821   0.0106456   
0.988218   -0.00300781   0.00942869   
0.990261   -0.00318522   0.00827467   
0.991944   -0.00332253   0.00720601   
0.993317   -0.00341447   0.0062413   
0.994427   -0.00345959   0.00539415   
0.995312   -0.00346103   0.00467261   
0.996007   -0.00342688   0.00407964   
0.99654   -0.00336987   0.00361334   
0.996919   -0.00330468   0.00327118   
0.997215   -0.00325523   0.00304034   
0.997213   -0.00320551   0.00294696   
0.997296   -0.00325659   0.00290055   
0.997317   -0.00339474   0.00301148   
0.997319   -0.0036642   0.00321694   
0.997343   -0.00406193   0.00352835   
0.997381   -0.00460865   0.00394584   
0.997444   -0.00533009   0.00446939   
0.997536   -0.00626046   0.00509545   
0.997659   -0.00744236   0.0058161   
0.997812   -0.00892668   0.00661855   
0.99799   -0.010772   0.00748515   
0.998188   -0.013043   0.00839409   
0.998402   -0.015808   0.00932028   
0.998626   -0.0191358   0.0102365   
0.998857   -0.0230913   0.0111144   
0.99909   -0.0277313   0.0119254   
0.999324   -0.0330991   0.0126413   
0.999555   -0.0392198   0.0132347   
0.999782   -0.0460952   0.0136793   
1   -0.0536984   0.0139499   
1.00022   -0.0619687   0.0140223   
1.00042   -0.0708062   0.0138736   
1.00062   -0.0800667   0.0134817   
1.0008   -0.0895557   0.0128255   
1.00098   -0.0990229   0.0118848   
1.00114   -0.108157   0.0106404   
1.0013   -0.116579   0.00907434   
1.00144   -0.123839   0.0071699   
1.00157   -0.129408   0.00491227   
1.00168   -0.132679   0.00228898   
1.00178   -0.132956   -0.000709414   
1.00186   -0.129462   -0.00408832   
1.00193   -0.121332   -0.00784799   
1.00197   -0.107624   -0.0119821   
1.00199   -0.0873202   -0.0164762   
1.00198   -0.0593474   -0.0213057   
1.00194   -0.0225911   -0.0264344   
1.00188   0.0240755   -0.0318118   
1.00177   0.0817574   -0.0373725   
1.00164   0.151495   -0.0430341   
1.00147   0.234215   -0.0486973   
1.00126   0.33067   -0.0542468   
1.00102   0.44138   -0.059553   
1.00075   0.566569   -0.0644766   
1.00046   0.706107   -0.0688742   
1.00015   0.859463   -0.0726054   
0.999834   1.02568   -0.0755418   
0.999525   1.20334   -0.0775755   
0.999231   1.39063   -0.078627   
0.998964   1.58534   -0.0786518   
0.998731   1.78495   -0.0776438   
0.998538   1.98673   -0.0756348   
0.99839   2.18782   -0.0726917   
0.998286   2.38534   -0.0689091   
0.998224   2.57651   -0.0644011   
0.998201   2.75869   -0.0592908   
0.99821   2.92946   -0.0537012   
0.998244   3.08665   -0.0477468   
0.998299   3.22834   -0.0415269   
0.998366   3.35286   -0.0351216   
0.998443   3.45872   -0.0285911   
0.998523   3.5446   -0.0219695   
0.998603   3.60933   -0.0152863   
0.998691   3.65175   -0.00852623   
1.00543   3.67075   -0.00843044   
1.00543   3.67075   -0.00843044   
-0.117054   -0.000209112   0.00709881   
-0.121909   -0.0186688   0.105792   
-0.112684   0.00667076   -0.011486   
-0.112295   0.000393068   0.00177235   
-0.109182   0.000556143   0.00280977   
-0.104721   0.000755348   0.00421788   
-0.0985588   0.000989998   0.00606346   
-0.0903099   0.00125671   0.00840111   
-0.0795745   0.0015483   0.0112687   
-0.0659625   0.0018541   0.0146808   
-0.0491195   0.00215953   0.0186226   
-0.0287552   0.00244665   0.0230452   
-0.00467021   0.00269535   0.0278644   
0.02322   0.00288503   0.0329612   
0.0548675   0.00299672   0.0381878   
0.0900843   0.00301526   0.0433759   
0.128544   0.00293126   0.0483494   
0.169795   0.00274239   0.0529369   
0.213286   0.00245393   0.0569851   
0.258391   0.00207828   0.0603703   
0.30445   0.0016337   0.0630061   
0.350804   0.00114244   0.0648478   
0.396822   0.000628573   0.0658922   
0.441936   0.000115853   0.0661741   
0.485655   -0.000374103   0.06576   
0.527583   -0.000823187   0.0647398   
0.567419   -0.00121764   0.0632183   
0.604956   -0.00154836   0.061307   
0.640076   -0.00181085   0.0591163   
0.672739   -0.00200478   0.05675   
0.702967   -0.0021334   0.0543005   
0.730833   -0.00220285   0.0518462   
0.756445   -0.0022215   0.0494497   
0.779937   -0.00219925   0.0471575   
0.801453   -0.00214695   0.0450008   
0.821145   -0.00207592   0.0429964   
0.839158   -0.00199751   0.0411485   
0.85563   -0.00192273   0.0394509   
0.87069   -0.00186197   0.0378889   
0.884451   -0.00182475   0.0364417   
0.897015   -0.00181948   0.0350845   
0.908471   -0.00185326   0.0337907   
0.918895   -0.00193171   0.0325335   
0.928356   -0.00205875   0.0312881   
0.936916   -0.00223648   0.0300328   
0.944632   -0.00246501   0.0287505   
0.951555   -0.00274232   0.0274294   
0.957739   -0.00306421   0.0260638   
0.963234   -0.00342427   0.0246543   
0.968092   -0.00381394   0.0232077   
0.972363   -0.0042228   0.0217363   
0.976098   -0.00463889   0.0202573   
0.979348   -0.00504939   0.0187914   
0.98216   -0.00544143   0.0173612   
0.98458   -0.00580316   0.0159899   
0.986648   -0.00612481   0.0146998   
0.988403   -0.00639982   0.0135107   
0.989877   -0.00662558   0.0124391   
0.991101   -0.00680395   0.0114981   
0.992099   -0.00694109   0.0106968   
0.992892   -0.00704662   0.010042   
0.993506   -0.00713339   0.00953691   
0.993925   -0.00720905   0.00918755   
0.994264   -0.00730628   0.00898482   
0.994399   -0.00738578   0.00895197   
0.994537   -0.0076829   0.00905844   
0.994702   -0.00814405   0.0093082   
0.994875   -0.00878886   0.00969369   
0.99507   -0.00963254   0.0102088   
0.995291   -0.0106974   0.0108451   
0.995542   -0.0120105   0.0115911   
0.995823   -0.0136045   0.0124315   
0.996136   -0.0155169   0.013347   
0.996478   -0.0177894   0.0143143   
0.996845   -0.0204671   0.0153059   
0.997232   -0.0235962   0.0162913   
0.997636   -0.0272215   0.0172375   
0.99805   -0.0313829   0.0181096   
0.998469   -0.0361118   0.0188721   
0.998889   -0.0414271   0.0194889   
0.999307   -0.04733   0.0199246   
0.999718   -0.0538001   0.0201439   
1.00012   -0.0607899   0.0201125   
1.00051   -0.0682201   0.0197971   
1.0009   -0.0759747   0.0191654   
1.00126   -0.0838953   0.018186   
1.00162   -0.0917761   0.0168291   
1.00196   -0.099359   0.0150658   
1.00228   -0.106328   0.0128691   
1.00258   -0.112304   0.0102138   
1.00287   -0.11684   0.00707696   
1.00314   -0.119421   0.00343885   
1.00338   -0.119452   -0.000716392   
1.00359   -0.116266   -0.00539956   
1.00378   -0.109116   -0.0106149   
1.00394   -0.0971852   -0.0163585   
1.00406   -0.0795835   -0.0226162   
1.00413   -0.0553637   -0.0293612   
1.00416   -0.0235329   -0.0365517   
1.00414   0.0169271   -0.0441286   
1.00406   0.0670338   -0.0520126   
1.00392   0.12777   -0.0601026   
1.00371   0.200045   -0.0682745   
1.00344   0.284646   -0.0763815   
1.0031   0.382187   -0.0842556   
1.00269   0.493056   -0.0917117   
1.00223   0.61736   -0.0985537   
1.00171   0.754875   -0.104583   
1.00117   0.905011   -0.109609   
1.0006   1.06679   -0.11346   
1.00003   1.23884   -0.115996   
0.99948   1.41941   -0.117117   
0.998964   1.60643   -0.116774   
0.9985   1.79755   -0.114968   
0.998098   1.99026   -0.111753   
0.997768   2.18192   -0.107227   
0.99751   2.36989   -0.101526   
0.997323   2.55162   -0.0948101   
0.997203   2.72468   -0.0872509   
0.99714   2.88685   -0.079018   
0.997125   3.03611   -0.0702688   
0.997146   3.17066   -0.0611396   
0.997195   3.28893   -0.0517409   
0.997262   3.3895   -0.042155   
0.997337   3.47112   -0.0324307   
0.997416   3.53265   -0.0226072   
0.997503   3.57297   -0.0126631   
1.00384   3.59103   -0.00968887   
1.00384   3.59103   -0.00968887   
-0.0428885   -0.000132512   0.00681348   
-0.0474744   -0.0179804   0.104148   
-0.0384298   0.00665154   -0.0109182   
-0.0379446   0.000660249   0.00236736   
-0.0348553   0.000927118   0.00368302   
-0.0305116   0.00125564   0.00545095   
-0.0246106   0.00164324   0.00775179   
-0.0168219   0.00208395   0.0106522   
-0.00680295   0.00256614   0.0141992   
0.00578087   0.00307235   0.0184126   
0.0212351   0.00357904   0.0232782   
0.0398127   0.00405732   0.0287426   