<VTKFile type="UnstructuredGrid"  version="0.1"   > 
<UnstructuredGrid> 
<Piece  NumberOfPoints="  27" NumberOfCells=" 8"> 
<Points> 
<DataArray  type="Float64"  NumberOfComponents="3"  format="ascii" > 
300.000000 0.000000 0.000000 
212.132034 212.132034 0.000000 
0.000000 300.000000 0.000000 
298.500000 0.000000 0.000000 
211.071374 211.071374 0.000000 
0.000000 298.500000 0.000000 
297.000000 0.000000 0.000000 
210.010714 210.010714 0.000000 
0.000000 297.000000 0.000000 
300.000000 0.000000 150.000000 
212.132034 212.132034 150.000000 
0.000000 300.000000 150.000000 
298.500000 0.000000 150.000000 
211.071374 211.071374 150.000000 
0.000000 298.500000 150.000000 
297.000000 0.000000 150.000000 
210.010714 210.010714 150.000000 
0.000000 297.000000 150.000000 
300.000000 0.000000 300.000000 
212.132034 212.132034 300.000000 
0.000000 300.000000 300.000000 
298.500000 0.000000 300.000000 
211.071374 211.071374 300.000000 
0.000000 298.500000 300.000000 
297.000000 0.000000 300.000000 
210.010714 210.010714 300.000000 
0.000000 297.000000 300.000000 
</DataArray> 
</Points> 
<Cells> 
<DataArray  type="Int32"  Name="connectivity"  format="ascii"> 
0 1 4 3 9 10 13 12 
1 2 5 4 10 11 14 13 
3 4 7 6 12 13 16 15 
4 5 8 7 13 14 17 16 
9 10 13 12 18 19 22 21 
10 11 14 13 19 20 23 22 
12 13 16 15 21 22 25 24 
13 14 17 16 22 23 26 25 
</DataArray> 
<DataArray  type="Int32"  Name="offsets"  format="ascii"> 
8 
16 
24 
32 
40 
48 
56 
64 
</DataArray> 
<DataArray  type="UInt8"  Name="types"  format="ascii"> 
12 
12 
12 
12 
12 
12 
12 
12 
</DataArray> 
</Cells> 
<PointData  Vectors="sigma"> 
<DataArray  type="Float64"  Name="sigma" NumberOfComponents="6" format="ascii"> 
0.000000   0.000000   0.000000   0.000000   0.000000   0.000000   
0.000000   0.000000   0.000000   0.000000   0.000000   0.000000   
0.000000   0.000000   0.000000   0.000000   0.000000   0.000000   
0.000000   0.000000   0.000000   0.000000   0.000000   0.000000   
0.000000   0.000000   0.000000   0.000000   0.000000   0.000000   
0.000000   0.000000   0.000000   0.000000   0.000000   0.000000   
0.000000   0.000000   0.000000   0.000000   0.000000   0.000000   
0.000000   0.000000   0.000000   0.000000   0.000000   0.000000   
0.000000   0.000000   0.000000   0.000000   0.000000   0.000000   
0.000000   0.000000   0.000000   0.000000   0.000000   0.000000   
0.000000   0.000000   0.000000   0.000000   0.000000   0.000000   
0.000000   0.000000   0.000000   0.000000   0.000000   0.000000   
0.000000   0.000000   0.000000   0.000000   0.000000   0.000000   
0.000000   0.000000   0.000000   0.000000   0.000000   0.000000   
0.000000   0.000000   0.000000   0.000000   0.000000   0.000000   
0.000000   0.000000   0.000000   0.000000   0.000000   0.000000   
0.000000   0.000000   0.000000   0.000000   0.000000   0.000000   
0.000000   0.000000   0.000000   0.000000   0.000000   0.000000   
0.000000   0.000000   0.000000   0.000000   0.000000   0.000000   
0.000000   0.000000   0.000000   0.000000   0.000000   0.000000   
0.000000   0.000000   0.000000   0.000000   0.000000   0.000000   
0.000000   0.000000   0.000000   0.000000   0.000000   0.000000   
0.000000   0.000000   0.000000   0.000000   0.000000   0.000000   
0.000000   0.000000   0.000000   0.000000   0.000000   0.000000   
0.000000   0.000000   0.000000   0.000000   0.000000   0.000000   
0.000000   0.000000   0.000000   0.000000   0.000000   0.000000   
0.000000   0.000000   0.000000   0.000000   0.000000   0.000000   
</DataArray> 
<DataArray  type="Float64"  Name="U" NumberOfComponents="3" format="ascii"> 
0.000000   0.000000   0.000000   
0.000000   0.000000   0.000000   
0.000000   0.000000   0.000000   
0.000000   0.000000   0.000000   
0.000000   0.000000   0.000000   
0.000000   0.000000   0.000000   
0.000000   0.000000   0.000000   
0.000000   0.000000   0.000000   
0.000000   0.000000   0.000000   
0.000000   0.000000   0.000000   
0.000000   0.000000   0.000000   
0.000000   0.000000   0.000000   
0.000000   0.000000   0.000000   
0.000000   0.000000   0.000000   
0.000000   0.000000   0.000000   
0.000000   0.000000   0.000000   
0.000000   0.000000   0.000000   
0.000000   0.000000   0.000000   
0.000000   0.000000   0.000000   
0.000000   0.000000   0.000000   
0.000000   0.000000   0.000000   
0.000000   0.000000   0.000000   
0.000000   0.000000   0.000000   
0.000000   0.000000   0.000000   
0.000000   0.000000   0.000000   
0.000000   0.000000   0.000000   
0.000000   0.000000   0.000000   
</DataArray> 
</PointData> 
</Piece> 
</UnstructuredGrid> 
</VTKFile> 
