<?xml version="1.0"?> 
<VTKFile type="StructuredGrid" version="0.1" byte_order="BigEndian" >
  <StructuredGrid  WholeExtent="0 16 0 2 0 16">
  <Piece Extent="0 16 0 2 0 16">
    <PointData Vectors="Disp"  >
      <DataArray type="Float32" Name="Stress" NumberOfComponents="6" format="ascii">
0.000000   0.000000   0.000000   0.000000   -0.000001   0.000000   
-0.000000   -0.000000   -0.000000   0.000000   0.000334   -0.000030   
0.000000   0.000000   0.000000   0.000000   0.000566   -0.000105   
0.000000   0.000000   0.000000   0.000000   0.000590   -0.000170   
0.000000   0.000000   0.000000   0.000000   0.000333   -0.000134   
0.000000   0.000000   0.000000   0.000000   -0.000201   0.000101   
-0.000000   -0.000000   -0.000000   0.000000   -0.000893   0.000580   
-0.000000   -0.000000   -0.000000   0.000000   -0.001528   0.001239   
-0.000000   -0.000000   -0.000000   0.000000   -0.001858   0.001859   
-0.000000   -0.000000   -0.000000   0.000000   -0.001691   0.002091   
0.000000   0.000000   0.000000   0.000000   -0.001018   0.001572   
0.000000   0.000000   0.000000   0.000000   -0.000091   0.000197   
0.000000   0.000000   0.000000   0.000000   0.000655   -0.001634   
-0.000000   -0.000000   -0.000000   0.000000   0.000884   -0.003079   
-0.000000   -0.000000   -0.000000   0.000000   0.000613   -0.003336   
-0.000000   -0.000000   -0.000000   0.000000   0.000186   -0.002172   
0.000000   0.000000   0.000000   0.000000   -0.000012   0.000024   
-0.000000   -0.000000   -0.000000   0.000000   -0.000001   0.000004   
0.000000   0.000000   0.000000   0.000000   0.000224   -0.000018   
0.000000   0.000000   0.000000   0.000000   0.000419   -0.000079   
0.000000   0.000000   0.000000   0.000000   0.000543   -0.000164   
0.000000   0.000000   0.000000   0.000000   0.000560   -0.000238   
-0.000000   -0.000000   -0.000000   0.000000   0.000443   -0.000252   
-0.000000   -0.000000   -0.000000   0.000000   0.000189   -0.000148   
-0.000000   -0.000000   -0.000000   0.000000   -0.000164   0.000119   
-0.000000   -0.000000   -0.000000   0.000000   -0.000532   0.000544   
0.000000   0.000000   0.000000   0.000000   -0.000799   0.001038   
0.000000   0.000000   0.000000   0.000000   -0.000871   0.001439   
0.000000   0.000000   0.000000   0.000000   -0.000743   0.001583   
0.000000   0.000000   0.000000   0.000000   -0.000504   0.001414   
-0.000000   -0.000000   -0.000000   0.000000   -0.000280   0.001025   
-0.000000   -0.000000   -0.000000   0.000000   -0.000148   0.000596   
-0.000000   -0.000000   -0.000000   0.000000   -0.000102   0.000249   
-0.000000   -0.000000   -0.000000   0.000000   -0.000101   0.000019   
0.000000   0.000000   0.000000   0.000000   0.000115   -0.000010   
-0.000000   -0.000000   -0.000000   0.000000   0.000272   -0.000051   
-0.000000   -0.000000   -0.000000   0.000000   0.000498   -0.000144   
0.000000   0.000000   0.000000   0.000000   0.000795   -0.000317   
-0.000000   -0.000000   -0.000000   0.000000   0.001101   -0.000573   
0.000000   0.000000   0.000000   0.000000   0.001292   -0.000848   
-0.000000   -0.000000   -0.000000   0.000000   0.001217   -0.000990   
0.000000   0.000000   0.000000   0.000000   0.000790   -0.000788   
0.000000   0.000000   0.000000   0.000000   0.000050   -0.000054   
-0.000000   -0.000000   -0.000000   0.000000   -0.000815   0.001262   
0.000000   0.000000   0.000000   0.000000   -0.001510   0.002941   
0.000000   0.000000   0.000000   0.000000   -0.001758   0.004459   
0.000000   0.000000   0.000000   0.000000   -0.001472   0.005148   
0.000000   0.000000   0.000000   0.000000   -0.000847   0.004552   
-0.000000   -0.000000   -0.000000   0.000000   -0.000253   0.002687   
0.000000   0.000000   0.000000   0.000000   -0.000012   0.000015   
-0.000000   -0.000000   -0.000000   0.000000   -0.000253   0.002687   
0.000000   0.000051   -0.000156   0.000004   -0.000001   0.000000   
0.000000   0.000030   -0.000152   -0.000003   0.000334   -0.000030   
-0.000001   -0.000022   -0.000136   0.000004   0.000565   -0.000105   
-0.000009   -0.000100   -0.000108   0.000031   0.000589   -0.000169   
-0.000030   -0.000185   -0.000062   0.000076   0.000331   -0.000133   
-0.000065   -0.000237   0.000013   0.000125   -0.000200   0.000100   
-0.000093   -0.000214   0.000130   0.000140   -0.000888   0.000577   
-0.000067   -0.000100   0.000284   0.000080   -0.001519   0.001231   
0.000071   0.000070   0.000438   -0.000072   -0.001849   0.001850   
0.000333   0.000213   0.000516   -0.000266   -0.001689   0.002087   
0.000632   0.000259   0.000449   -0.000401   -0.001024   0.001582   
0.000788   0.000202   0.000232   -0.000394   -0.000101   0.000217   
0.000639   0.000100   -0.000057   -0.000253   0.000648   -0.001617   
0.000179   0.000020   -0.000302   -0.000070   0.000883   -0.003078   
-0.000429   -0.000010   -0.000436   0.000060   0.000615   -0.003350   
-0.000962   -0.000005   -0.000484   0.000081   0.000187   -0.002188   
-0.001276   -0.000005   -0.000526   -0.000055   -0.000012   0.000024   
0.000000   -0.000007   -0.000161   0.000004   -0.000001   0.000004   
-0.000000   -0.000008   -0.000151   -0.000001   0.000225   -0.000018   
0.000000   -0.000008   -0.000118   0.000000   0.000418   -0.000079   
0.000001   -0.000004   -0.000063   0.000001   0.000542   -0.000163   
0.000002   0.000005   0.000015   -0.000002   0.000557   -0.000237   
0.000005   0.000017   0.000113   -0.000008   0.000439   -0.000250   
0.000008   0.000025   0.000220   -0.000014   0.000188   -0.000147   
0.000006   0.000026   0.000313   -0.000015   -0.000162   0.000117   
-0.000003   0.000016   0.000352   -0.000008   -0.000526   0.000538   
-0.000019   -0.000003   0.000299   0.000008   -0.000792   0.001029   
-0.000037   -0.000021   0.000144   0.000029   -0.000868   0.001434   
-0.000048   -0.000027   -0.000065   0.000040   -0.000744   0.001586   
-0.000040   -0.000017   -0.000239   0.000027   -0.000507   0.001423   
-0.000007   -0.000005   -0.000309   -0.000000   -0.000283   0.001037   
0.000034   0.000001   -0.000274   -0.000010   -0.000149   0.000605   
0.000065   0.000004   -0.000200   -0.000001   -0.000103   0.000253   
0.000055   0.000001   -0.000173   -0.000054   -0.000102   0.000019   
-0.000001   -0.000047   -0.000149   0.000004   0.000115   -0.000010   
0.000000   0.000005   -0.000101   -0.000001   0.000272   -0.000050   
0.000007   0.000092   -0.000019   -0.000024   0.000496   -0.000143   
0.000030   0.000196   0.000091   -0.000075   0.000790   -0.000315   
0.000072   0.000274   0.000213   -0.000140   0.001093   -0.000568   
0.000113   0.000267   0.000313   -0.000174   0.001283   -0.000842   
0.000094   0.000144   0.000343   -0.000118   0.001212   -0.000987   
-0.000058   -0.000059   0.000265   0.000057   0.000793   -0.000791   
-0.000362   -0.000245   0.000076   0.000298   0.000060   -0.000066   
-0.000712   -0.000315   -0.000167   0.000478   -0.000802   0.001242   
-0.000895   -0.000247   -0.000362   0.000476   -0.001502   0.002926   
-0.000724   -0.000112   -0.000417   0.000286   -0.001758   0.004460   
-0.000189   -0.000010   -0.000309   0.000036   -0.001478   0.005169   
0.000503   0.000021   -0.000108   -0.000112   -0.000853   0.004584   
0.001097   0.000011   0.000085   -0.000104   -0.000255   0.002712   
0.001390   -0.000002   0.000179   -0.000055   -0.000012   0.000015   
0.001097   0.000011   0.000085   -0.000104   -0.000255   0.002712   
0.000000   0.000102   -0.000314   0.000009   -0.000001   0.000000   
0.000000   0.000060   -0.000304   -0.000006   0.000334   -0.000030   
-0.000002   -0.000043   -0.000270   0.000009   0.000563   -0.000104   
-0.000017   -0.000199   -0.000212   0.000061   0.000585   -0.000168   
-0.000060   -0.000367   -0.000120   0.000151   0.000327   -0.000131   
-0.000129   -0.000471   0.000027   0.000248   -0.000198   0.000099   
-0.000185   -0.000427   0.000255   0.000280   -0.000873   0.000567   
-0.000134   -0.000201   0.000559   0.000161   -0.001492   0.001208   
0.000136   0.000135   0.000864   -0.000139   -0.001821   0.001822   
0.000658   0.000421   0.001028   -0.000526   -0.001680   0.002076   
0.001258   0.000516   0.000908   -0.000797   -0.001043   0.001609   
0.001579   0.000405   0.000480   -0.000788   -0.000132   0.000278   
0.001292   0.000203   -0.000101   -0.000511   0.000628   -0.001564   
0.000373   0.000041   -0.000600   -0.000145   0.000882   -0.003073   
-0.000853   -0.000019   -0.000878   0.000118   0.000623   -0.003393   
-0.001935   -0.000010   -0.000980   0.000163   0.000191   -0.002236   
-0.002577   -0.000008   -0.001064   -0.000113   -0.000012   0.000025   
0.000000   -0.000014   -0.000321   0.000009   -0.000001   0.000004   
-0.000000   -0.000017   -0.000301   -0.000001   0.000225   -0.000018   
0.000001   -0.000016   -0.000235   0.000000   0.000417   -0.000079   
0.000002   -0.000008   -0.000123   0.000001   0.000536   -0.000161   
0.000005   0.000010   0.000032   -0.000004   0.000547   -0.000232   
0.000010   0.000033   0.000226   -0.000015   0.000429   -0.000244   
0.000015   0.000050   0.000436   -0.000027   0.000182   -0.000143   
0.000012   0.000052   0.000618   -0.000030   -0.000156   0.000112   
-0.000006   0.000033   0.000699   -0.000017   -0.000510   0.000519   
-0.000037   -0.000004   0.000599   0.000014   -0.000774   0.001005   
-0.000073   -0.000041   0.000298   0.000058   -0.000859   0.001418   
-0.000097   -0.000054   -0.000118   0.000082   -0.000746   0.001592   
-0.000082   -0.000034   -0.000473   0.000056   -0.000515   0.001451   
-0.000016   -0.000010   -0.000619   -0.000000   -0.000291   0.001071   
0.000068   0.000003   -0.000554   -0.000020   -0.000154   0.000632   
0.000132   0.000008   -0.000407   -0.000001   -0.000106   0.000267   
0.000112   0.000001   -0.000352   -0.000111   -0.000106   0.000020   
-0.000001   -0.000094   -0.000297   0.000008   0.000115   -0.000010   
0.000000   0.000011   -0.000200   -0.000001   0.000271   -0.000050   
0.000014   0.000182   -0.000037   -0.000048   0.000490   -0.000141   
0.000059   0.000389   0.000183   -0.000149   0.000774   -0.000309   
0.000143   0.000543   0.000424   -0.000277   0.001070   -0.000556   
0.000225   0.000531   0.000621   -0.000346   0.001257   -0.000825   
0.000189   0.000290   0.000683   -0.000237   0.001197   -0.000975   
-0.000110   -0.000111   0.000531   0.000107   0.000800   -0.000799   
-0.000713   -0.000483   0.000159   0.000587   0.000090   -0.000104   
-0.001417   -0.000627   -0.000325   0.000951   -0.000764   0.001184   
-0.001796   -0.000496   -0.000719   0.000956   -0.001477   0.002877   
-0.001466   -0.000227   -0.000834   0.000581   -0.001758   0.004461   
-0.000397   -0.000021   -0.000624   0.000076   -0.001496   0.005233   
0.001002   0.000043   -0.000221   -0.000223   -0.000871   0.004683   
0.002209   0.000023   0.000168   -0.000210   -0.000262   0.002788   
0.002808   -0.000004   0.000359   -0.000113   -0.000013   0.000015   
0.002209   0.000023   0.000168   -0.000210   -0.000262   0.002788   
0.000001   0.000153   -0.000473   0.000013   -0.000001   0.000001   
0.000000   0.000091   -0.000457   -0.000009   0.000335   -0.000030   
-0.000003   -0.000064   -0.000402   0.000013   0.000562   -0.000104   
-0.000026   -0.000296   -0.000309   0.000091   0.000579   -0.000167   
-0.000089   -0.000546   -0.000172   0.000225   0.000320   -0.000129   
-0.000191   -0.000701   0.000043   0.000368   -0.000196   0.000098   
-0.000275   -0.000637   0.000372   0.000417   -0.000850   0.000552   
-0.000204   -0.000305   0.000814   0.000245   -0.001448   0.001173   
0.000193   0.000191   0.001270   -0.000196   -0.001775   0.001775   
0.000965   0.000618   0.001532   -0.000772   -0.001662   0.002054   
0.001871   0.000767   0.001381   -0.001186   -0.001070   0.001651   
0.002377   0.000608   0.000760   -0.001185   -0.000184   0.000378   
0.001973   0.000308   -0.000118   -0.000778   0.000592   -0.001471   
0.000598   0.000065   -0.000891   -0.000230   0.000879   -0.003059   
-0.001265   -0.000028   -0.001331   0.000172   0.000636   -0.003464   
-0.002929   -0.000015   -0.001496   0.000245   0.000198   -0.002318   
-0.003931   -0.000015   -0.001634   -0.000173   -0.000013   0.000026   
0.000000   -0.000020   -0.000483   0.000013   -0.000001   0.000004   
-0.000000   -0.000024   -0.000451   -0.000002   0.000225   -0.000018   
0.000001   -0.000023   -0.000349   0.000000   0.000415   -0.000078   
0.000003   -0.000012   -0.000180   0.000002   0.000528   -0.000159   
0.000007   0.000014   0.000053   -0.000005   0.000531   -0.000226   
0.000015   0.000047   0.000337   -0.000022   0.000411   -0.000234   
0.000023   0.000073   0.000644   -0.000040   0.000173   -0.000137   
0.000019   0.000078   0.000910   -0.000046   -0.000146   0.000104   
-0.000007   0.000052   0.001034   -0.000028   -0.000483   0.000490   
-0.000053   -0.000003   0.000901   0.000018   -0.000743   0.000963   
-0.000108   -0.000060   0.000468   0.000085   -0.000842   0.001389   
-0.000148   -0.000082   -0.000149   0.000125   -0.000750   0.001601   
-0.000128   -0.000054   -0.000692   0.000088   -0.000530   0.001497   
-0.000029   -0.000016   -0.000931   0.000002   -0.000304   0.001131   
0.000101   0.000004   -0.000845   -0.000031   -0.000162   0.000680   
0.000203   0.000012   -0.000627   -0.000003   -0.000111   0.000291   
0.000173   0.000001   -0.000545   -0.000170   -0.000109   0.000021   
-0.000002   -0.000140   -0.000445   0.000012   0.000116   -0.000010   
0.000000   0.000016   -0.000298   -0.000002   0.000268   -0.000050   
0.000021   0.000270   -0.000053   -0.000071   0.000479   -0.000138   
0.000087   0.000577   0.000274   -0.000220   0.000749   -0.000299   
0.000212   0.000805   0.000631   -0.000411   0.001031   -0.000536   
0.000334   0.000789   0.000920   -0.000515   0.001216   -0.000799   
0.000286   0.000439   0.001014   -0.000359   0.001173   -0.000954   
-0.000149   -0.000150   0.000796   0.000145   0.000810   -0.000809   
-0.001042   -0.000705   0.000254   0.000856   0.000138   -0.000163   
-0.002105   -0.000933   -0.000464   0.001413   -0.000701   0.001086   
-0.002708   -0.000749   -0.001062   0.001443   -0.001434   0.002794   
-0.002247   -0.000349   -0.001251   0.000892   -0.001757   0.004459   
-0.000646   -0.000035   -0.000949   0.000129   -0.001526   0.005339   
0.001488   0.000064   -0.000345   -0.000335   -0.000902   0.004849   
0.003351   0.000035   0.000246   -0.000320   -0.000274   0.002918   
0.004287   -0.000006   0.000541   -0.000173   -0.000012   0.000016   
0.003351   0.000035   0.000246   -0.000320   -0.000274   0.002918   
0.000001   0.000206   -0.000634   0.000017   -0.000001   0.000000   
0.000000   0.000122   -0.000611   -0.000012   0.000338   -0.000030   
-0.000004   -0.000083   -0.000528   0.000018   0.000562   -0.000104   
-0.000034   -0.000390   -0.000398   0.000120   0.000573   -0.000165   
-0.000117   -0.000719   -0.000212   0.000296   0.000311   -0.000125   
-0.000252   -0.000924   0.000063   0.000485   -0.000195   0.000098   
-0.000364   -0.000842   0.000478   0.000551   -0.000823   0.000535   
-0.000275   -0.000411   0.001041   0.000331   -0.001391   0.001127   
0.000235   0.000235   0.001641   -0.000241   -0.001710   0.001710   
0.001247   0.000800   0.002022   -0.001000   -0.001633   0.002016   
0.002462   0.001009   0.001876   -0.001560   -0.001102   0.001699   
0.003182   0.000812   0.001088   -0.001582   -0.000256   0.000516   
0.002696   0.000419   -0.000090   -0.001059   0.000537   -0.001332   
0.000873   0.000093   -0.001169   -0.000328   0.000872   -0.003031   
-0.001658   -0.000035   -0.001802   0.000219   0.000655   -0.003561   
-0.003955   -0.000021   -0.002047   0.000328   0.000208   -0.002437   
-0.005364   -0.000017   -0.002245   -0.000240   -0.000013   0.000029   
0.000000   -0.000025   -0.000645   0.000017   -0.000001   0.000004   
-0.000001   -0.000031   -0.000600   -0.000002   0.000226   -0.000018   
0.000001   -0.000030   -0.000459   0.000000   0.000413   -0.000078   
0.000004   -0.000017   -0.000229   0.000003   0.000517   -0.000155   
0.000009   0.000016   0.000079   -0.000006   0.000510   -0.000217   
0.000020   0.000060   0.000447   -0.000028   0.000386   -0.000221   
0.000030   0.000094   0.000839   -0.000053   0.000160   -0.000127   
0.000026   0.000103   0.001181   -0.000061   -0.000135   0.000094   
-0.000006   0.000073   0.001352   -0.000041   -0.000446   0.000451   
-0.000066   0.000003   0.001204   0.000018   -0.000700   0.000904   
-0.000142   -0.000077   0.000663   0.000110   -0.000816   0.001346   
-0.000201   -0.000110   -0.000145   0.000171   -0.000753   0.001609   
-0.000183   -0.000075   -0.000889   0.000126   -0.000550   0.001561   
-0.000049   -0.000024   -0.001244   0.000006   -0.000323   0.001219   
0.000134   0.000005   -0.001154   -0.000043   -0.000173   0.000751   
0.000281   0.000016   -0.000868   -0.000006   -0.000118   0.000327   
0.000239   -0.000000   -0.000759   -0.000235   -0.000121   0.000023   
-0.000002   -0.000185   -0.000591   0.000015   0.000115   -0.000010   
0.000000   0.000021   -0.000392   -0.000002   0.000263   -0.000049   
0.000027   0.000356   -0.000065   -0.000094   0.000463   -0.000133   
0.000115   0.000757   0.000366   -0.000289   0.000716   -0.000285   
0.000278   0.001056   0.000831   -0.000539   0.000981   -0.000510   
0.000440   0.001039   0.001207   -0.000679   0.001162   -0.000763   
0.000385   0.000591   0.001331   -0.000482   0.001138   -0.000926   
-0.000172   -0.000172   0.001060   0.000166   0.000820   -0.000819   
-0.001339   -0.000904   0.000364   0.001098   0.000199   -0.000240   
-0.002766   -0.001226   -0.000575   0.001856   -0.000613   0.000952   
-0.003631   -0.001008   -0.001385   0.001938   -0.001370   0.002671   
-0.003084   -0.000481   -0.001669   0.001229   -0.001751   0.004446   
-0.000958   -0.000055   -0.001289   0.000199   -0.001566   0.005485   
0.001955   0.000086   -0.000486   -0.000445   -0.000946   0.005090   
0.004539   0.000048   0.000317   -0.000436   -0.000292   0.003110   
0.005858   -0.000011   0.000723   -0.000240   -0.000016   0.000016   
0.004539   0.000048   0.000317   -0.000436   -0.000292   0.003110   
0.000001   0.000262   -0.000799   0.000022   -0.000002   0.000000   
0.000001   0.000154   -0.000765   -0.000016   0.000345   -0.000031   
-0.000005   -0.000102   -0.000649   0.000021   0.000567   -0.000105   
-0.000042   -0.000481   -0.000473   0.000149   0.000568   -0.000163   
-0.000144   -0.000888   -0.000241   0.000365   0.000300   -0.000120   
-0.000310   -0.001140   0.000087   0.000597   -0.000197   0.000099   
-0.000450   -0.001042   0.000571   0.000682   -0.000796   0.000517   
-0.000347   -0.000521   0.001235   0.000419   -0.001326   0.001074   
0.000263   0.000267   0.001970   -0.000272   -0.001627   0.001627   
0.001495   0.000963   0.002487   -0.001203   -0.001583   0.001955   
0.003021   0.001238   0.002396   -0.001916   -0.001133   0.001744   
0.003990   0.001014   0.001481   -0.001979   -0.000344   0.000688   
0.003473   0.000536   0.000002   -0.001354   0.000461   -0.001139   
0.001219   0.000126   -0.001423   -0.000446   0.000856   -0.002974   
-0.002021   -0.000041   -0.002295   0.000257   0.000677   -0.003682   
-0.005023   -0.000025   -0.002648   0.000412   0.000223   -0.002597   
-0.006919   -0.000034   -0.002930   -0.000314   -0.000017   0.000030   
0.000000   -0.000029   -0.000809   0.000022   -0.000001   0.000004   
-0.000001   -0.000037   -0.000750   -0.000003   0.000228   -0.000018   
0.000001   -0.000037   -0.000565   0.000001   0.000411   -0.000077   
0.000004   -0.000021   -0.000270   0.000004   0.000503   -0.000151   
0.000011   0.000018   0.000112   -0.000007   0.000484   -0.000205   
0.000024   0.000070   0.000556   -0.000034   0.000355   -0.000204   
0.000037   0.000113   0.001020   -0.000064   0.000142   -0.000114   
0.000033   0.000126   0.001426   -0.000075   -0.000124   0.000085   
-0.000003   0.000097   0.001645   -0.000055   -0.000403   0.000404   
-0.000074   0.000014   0.001504   0.000012   -0.000643   0.000829   
-0.000172   -0.000089   0.000890   0.000129   -0.000780   0.001283   
-0.000257   -0.000140   -0.000093   0.000219   -0.000753   0.001612   
-0.000247   -0.000100   -0.001052   0.000173   -0.000577   0.001642   
-0.000081   -0.000033   -0.001557   0.000016   -0.000350   0.001339   
0.000165   0.000006   -0.001488   -0.000058   -0.000189   0.000852   
0.000368   0.000021   -0.001140   -0.000010   -0.000126   0.000379   
0.000315   -0.000001   -0.001006   -0.000308   -0.000126   0.000024   
-0.000003   -0.000230   -0.000735   0.000019   0.000111   -0.000010   
0.000000   0.000026   -0.000483   -0.000002   0.000253   -0.000047   
0.000034   0.000438   -0.000073   -0.000115   0.000440   -0.000127   
0.000141   0.000929   0.000459   -0.000355   0.000674   -0.000268   
0.000341   0.001295   0.001024   -0.000662   0.000921   -0.000479   
0.000542   0.001279   0.001477   -0.000835   0.001098   -0.000720   
0.000484   0.000742   0.001629   -0.000606   0.001095   -0.000891   
-0.000177   -0.000173   0.001317   0.000168   0.000826   -0.000826   
-0.001593   -0.001073   0.000495   0.001304   0.000270   -0.000326   
-0.003387   -0.001502   -0.000650   0.002272   -0.000504   0.000783   
-0.004563   -0.001270   -0.001677   0.002441   -0.001282   0.002504   
-0.003997   -0.000628   -0.002083   0.001602   -0.001738   0.004414   
-0.001364   -0.000082   -0.001652   0.000297   -0.001618   0.005666   
0.002386   0.000107   -0.000653   -0.000554   -0.001006   0.005413   
0.005789   0.000062   0.000375   -0.000560   -0.000316   0.003376   
0.007567   -0.000012   0.000911   -0.000314   -0.000013   0.000019   
0.005789   0.000062   0.000375   -0.000560   -0.000316   0.003376   
0.000002   0.000320   -0.000967   0.000027   -0.000002   0.000001   
0.000001   0.000190   -0.000920   -0.000019   0.000356   -0.000032   
-0.000005   -0.000118   -0.000764   0.000026   0.000580   -0.000107   
-0.000050   -0.000571   -0.000534   0.000176   0.000567   -0.000163   
-0.000171   -0.001050   -0.000253   0.000431   0.000286   -0.000115   
-0.000366   -0.001347   0.000116   0.000706   -0.000204   0.000103   
-0.000532   -0.001235   0.000652   0.000807   -0.000773   0.000501   
-0.000420   -0.000631   0.001391   0.000508   -0.001256   0.001019   
0.000278   0.000284   0.002246   -0.000289   -0.001530   0.001529   
0.001706   0.001106   0.002915   -0.001377   -0.001512   0.001865   
0.003536   0.001449   0.002935   -0.002245   -0.001149   0.001769   
0.004797   0.001214   0.001961   -0.002371   -0.000449   0.000886   
0.004309   0.000659   0.000181   -0.001667   0.000363   -0.000883   
0.001654   0.000166   -0.001640   -0.000587   0.000828   -0.002875   
-0.002340   -0.000044   -0.002815   0.000279   0.000701   -0.003816   
-0.006144   -0.000030   -0.003315   0.000497   0.000239   -0.002803   
-0.008630   -0.000027   -0.003699   -0.000399   -0.000014   0.000038   
0.000000   -0.000033   -0.000975   0.000027   -0.000001   0.000005   
-0.000001   -0.000042   -0.000899   -0.000003   0.000230   -0.000018   
0.000001   -0.000042   -0.000665   0.000001   0.000409   -0.000077   
0.000005   -0.000026   -0.000301   0.000005   0.000488   -0.000147   
0.000012   0.000018   0.000154   -0.000007   0.000453   -0.000193   
0.000028   0.000079   0.000664   -0.000039   0.000319   -0.000184   
0.000043   0.000128   0.001185   -0.000073   0.000119   -0.000099   
0.000041   0.000147   0.001642   -0.000089   -0.000114   0.000078   
0.000003   0.000120   0.001906   -0.000070   -0.000355   0.000354   
-0.000078   0.000031   0.001795   -0.000000   -0.000575   0.000736   
-0.000195   -0.000096   0.001149   0.000141   -0.000729   0.001197   
-0.000315   -0.000171   0.000025   0.000268   -0.000750   0.001601   
-0.000326   -0.000129   -0.001165   0.000231   -0.000605   0.001739   
-0.000131   -0.000044   -0.001863   0.000033   -0.000386   0.001494   
0.000189   0.000007   -0.001853   -0.000075   -0.000212   0.000990   
0.000468   0.000025   -0.001454   -0.000017   -0.000141   0.000452   
0.000400   -0.000005   -0.001297   -0.000388   -0.000153   0.000029   
-0.000003   -0.000276   -0.000879   0.000024   0.000103   -0.000009   
-0.000000   0.000031   -0.000569   -0.000002   0.000237   -0.000044   
0.000040   0.000517   -0.000075   -0.000136   0.000411   -0.000118   
0.000166   0.001094   0.000554   -0.000418   0.000624   -0.000249   
0.000401   0.001523   0.001211   -0.000779   0.000854   -0.000444   
0.000639   0.001505   0.001728   -0.000984   0.001027   -0.000675   
0.000582   0.000891   0.001906   -0.000727   0.001045   -0.000850   
-0.000165   -0.000158   0.001563   0.000154   0.000826   -0.000827   
-0.001799   -0.001206   0.000645   0.001467   0.000341   -0.000416   
-0.003949   -0.001752   -0.000676   0.002647   -0.000377   0.000589   
-0.005495   -0.001536   -0.001926   0.002947   -0.001170   0.002282   
-0.005001   -0.000791   -0.002484   0.002017   -0.001708   0.004348   
-0.001896   -0.000120   -0.002039   0.000433   -0.001677   0.005877   
0.002761   0.000128   -0.000857   -0.000658   -0.001083   0.005824   
0.007117   0.000075   0.000415   -0.000696   -0.000350   0.003730   
0.009457   -0.000024   0.001100   -0.000398   -0.000023   0.000019   
0.007117   0.000075   0.000415   -0.000696   -0.000350   0.003730   
0.000002   0.000388   -0.001138   0.000032   -0.000002   0.000000   
0.000001   0.000231   -0.001077   -0.000022   0.000376   -0.000033   
-0.000007   -0.000133   -0.000870   0.000030   0.000603   -0.000112   
-0.000058   -0.000660   -0.000578   0.000203   0.000575   -0.000165   
-0.000196   -0.001210   -0.000248   0.000495   0.000271   -0.000109   
-0.000420   -0.001546   0.000151   0.000810   -0.000218   0.000110   
-0.000611   -0.001421   0.000717   0.000927   -0.000754   0.000491   
-0.000491   -0.000740   0.001513   0.000595   -0.001193   0.000965   
0.000280   0.000289   0.002461   -0.000293   -0.001420   0.001423   
0.001878   0.001224   0.003291   -0.001523   -0.001415   0.001742   
0.003991   0.001642   0.003484   -0.002541   -0.001142   0.001755   
0.005583   0.001404   0.002531   -0.002749   -0.000554   0.001094   
0.005216   0.000788   0.000490   -0.001995   0.000229   -0.000554   
0.002198   0.000213   -0.001807   -0.000757   0.000788   -0.002707   
-0.002599   -0.000044   -0.003376   0.000285   0.000729   -0.003955   
-0.007333   -0.000034   -0.004084   0.000581   0.000258   -0.003054   
-0.010579   -0.000075   -0.004641   -0.000504   -0.000031   0.000035   
0.000000   -0.000036   -0.001144   0.000031   -0.000002   0.000005   
-0.000001   -0.000047   -0.001049   -0.000004   0.000233   -0.000018   
0.000001   -0.000047   -0.000759   0.000002   0.000408   -0.000077   
0.000005   -0.000031   -0.000319   0.000007   0.000473   -0.000142   
0.000014   0.000017   0.000207   -0.000008   0.000417   -0.000178   
0.000031   0.000086   0.000771   -0.000042   0.000277   -0.000161   
0.000050   0.000142   0.001333   -0.000082   0.000092   -0.000080   
0.000048   0.000164   0.001825   -0.000100   -0.000109   0.000072   
0.000010   0.000144   0.002128   -0.000086   -0.000304   0.000305   
-0.000076   0.000054   0.002066   -0.000018   -0.000498   0.000632   
-0.000212   -0.000091   0.001442   0.000139   -0.000662   0.001082   
-0.000370   -0.000201   0.000220   0.000318   -0.000733   0.001568   
-0.000422   -0.000166   -0.001204   0.000308   -0.000642   0.001841   
-0.000209   -0.000061   -0.002153   0.000064   -0.000424   0.001694   
0.000200   0.000007   -0.002254   -0.000091   -0.000240   0.001179   
0.000583   0.000031   -0.001829   -0.000029   -0.000160   0.000557   
0.000505   -0.000012   -0.001660   -0.000492   -0.000161   0.000029   
-0.000004   -0.000326   -0.001021   0.000028   0.000089   -0.000007   
-0.000000   0.000035   -0.000650   -0.000002   0.000212   -0.000040   
0.000046   0.000596   -0.000067   -0.000157   0.000373   -0.000107   
0.000191   0.001252   0.000654   -0.000480   0.000569   -0.000227   
0.000458   0.001739   0.001390   -0.000889   0.000782   -0.000407   
0.000732   0.001721   0.001960   -0.001126   0.000955   -0.000626   
0.000676   0.001032   0.002152   -0.000843   0.000992   -0.000809   
-0.000140   -0.000129   0.001794   0.000127   0.000819   -0.000817   
-0.001955   -0.001303   0.000808   0.001587   0.000405   -0.000498   
-0.004436   -0.001963   -0.000647   0.002965   -0.000240   0.000377   
-0.006402   -0.001799   -0.002112   0.003444   -0.001026   0.002008   
-0.006111   -0.000977   -0.002869   0.002487   -0.001661   0.004219   
-0.002597   -0.000171   -0.002443   0.000620   -0.001736   0.006105   
0.003051   0.000146   -0.001090   -0.000752   -0.001177   0.006341   
0.008543   0.000093   0.000438   -0.000847   -0.000396   0.004193   
0.011615   -0.000021   0.001309   -0.000505   -0.000017   0.000024   
0.008543   0.000093   0.000438   -0.000847   -0.000396   0.004193   
0.000002   0.000462   -0.001311   0.000040   -0.000002   0.000000   
0.000001   0.000280   -0.001236   -0.000026   0.000402   -0.000036   
-0.000007   -0.000145   -0.000973   0.000034   0.000644   -0.000119   
-0.000066   -0.000750   -0.000601   0.000232   0.000591   -0.000171   
-0.000221   -0.001370   -0.000222   0.000559   0.000253   -0.000101   
-0.000472   -0.001739   0.000189   0.000909   -0.000243   0.000123   
-0.000688   -0.001596   0.000766   0.001044   -0.000742   0.000482   
-0.000557   -0.000847   0.001602   0.000678   -0.001133   0.000919   
0.000279   0.000288   0.002623   -0.000292   -0.001317   0.001313   
0.002009   0.001323   0.003588   -0.001638   -0.001282   0.001588   
0.004376   0.001807   0.004020   -0.002799   -0.001100   0.001682   
0.006327   0.001586   0.003201   -0.003107   -0.000654   0.001284   
0.006181   0.000916   0.000949   -0.002329   0.000074   -0.000149   
0.002890   0.000271   -0.001865   -0.000957   0.000701   -0.002429   
-0.002772   -0.000041   -0.003992   0.000260   0.000758   -0.004058   
-0.008591   -0.000037   -0.005018   0.000662   0.000290   -0.003354   