<VTKFile type="UnstructuredGrid"  version="0.1"   > 
<UnstructuredGrid> 
<Piece  NumberOfPoints="  2178" NumberOfCells=" 1024"> 
<Points> 
<DataArray  type="Float64"  NumberOfComponents="3"  format="ascii" > 
300.000000 0.000000 0.000000 
299.710112 18.369721 0.000000 
298.834566 36.230897 0.000000 
297.372413 53.524585 0.000000 
295.323921 70.232238 0.000000 
292.689060 86.353819 0.000000 
289.467805 101.889292 0.000000 
285.660134 116.838618 0.000000 
281.266024 131.201760 0.000000 
276.285458 144.978679 0.000000 
270.718420 158.169339 0.000000 
264.564900 170.773702 0.000000 
257.824890 182.791735 0.000000 
250.498387 194.223405 0.000000 
242.585392 205.068682 0.000000 
234.085912 215.327540 0.000000 
224.999956 224.999956 0.000000 
215.327540 234.085912 0.000000 
205.068682 242.585392 0.000000 
194.223405 250.498387 0.000000 
182.791735 257.824890 0.000000 
170.773702 264.564900 0.000000 
158.169339 270.718420 0.000000 
144.978679 276.285458 0.000000 
131.201760 281.266024 0.000000 
116.838618 285.660134 0.000000 
101.889292 289.467805 0.000000 
86.353819 292.689060 0.000000 
70.232238 295.323921 0.000000 
53.524585 297.372413 0.000000 
36.230897 298.834566 0.000000 
18.369721 299.710112 0.000000 
0.000000 300.000000 0.000000 
297.000000 0.000000 0.000000 
296.713011 18.186024 0.000000 
295.846220 35.868588 0.000000 
294.398689 52.989340 0.000000 
292.370681 69.529915 0.000000 
289.762169 85.490281 0.000000 
286.573127 100.870399 0.000000 
282.803533 115.670232 0.000000 
278.453364 129.889742 0.000000 
273.522603 143.528893 0.000000 
268.011236 156.587646 0.000000 
261.919251 169.065965 0.000000 
255.246641 180.963818 0.000000 
247.993403 192.281171 0.000000 
240.159538 203.017995 0.000000 
231.745053 213.174265 0.000000 
222.749957 222.749957 0.000000 
213.174265 231.745053 0.000000 
203.017995 240.159538 0.000000 
192.281171 247.993403 0.000000 
180.963818 255.246641 0.000000 
169.065965 261.919251 0.000000 
156.587646 268.011236 0.000000 
143.528893 273.522603 0.000000 
129.889742 278.453364 0.000000 
115.670232 282.803533 0.000000 
100.870399 286.573127 0.000000 
85.490281 289.762169 0.000000 
69.529915 292.370681 0.000000 
52.989340 294.398689 0.000000 
35.868588 295.846220 0.000000 
18.186024 296.713011 0.000000 
0.000000 297.000000 0.000000 
300.000000 0.000000 9.375000 
299.710112 18.369721 9.375000 
298.834566 36.230897 9.375000 
297.372413 53.524585 9.375000 
295.323921 70.232238 9.375000 
292.689060 86.353819 9.375000 
289.467805 101.889292 9.375000 
285.660134 116.838618 9.375000 
281.266024 131.201760 9.375000 
276.285458 144.978679 9.375000 
270.718420 158.169339 9.375000 
264.564900 170.773702 9.375000 
257.824890 182.791735 9.375000 
250.498387 194.223405 9.375000 
242.585392 205.068682 9.375000 
234.085912 215.327540 9.375000 
224.999956 224.999956 9.375000 
215.327540 234.085912 9.375000 
205.068682 242.585392 9.375000 
194.223405 250.498387 9.375000 
182.791735 257.824890 9.375000 
170.773702 264.564900 9.375000 
158.169339 270.718420 9.375000 
144.978679 276.285458 9.375000 
131.201760 281.266024 9.375000 
116.838618 285.660134 9.375000 
101.889292 289.467805 9.375000 
86.353819 292.689060 9.375000 
70.232238 295.323921 9.375000 
53.524585 297.372413 9.375000 
36.230897 298.834566 9.375000 
18.369721 299.710112 9.375000 
0.000000 300.000000 9.375000 
297.000000 0.000000 9.375000 
296.713011 18.186024 9.375000 
295.846220 35.868588 9.375000 
294.398689 52.989340 9.375000 
292.370681 69.529915 9.375000 
289.762169 85.490281 9.375000 
286.573127 100.870399 9.375000 
282.803533 115.670232 9.375000 
278.453364 129.889742 9.375000 
273.522603 143.528893 9.375000 
268.011236 156.587646 9.375000 
261.919251 169.065965 9.375000 
255.246641 180.963818 9.375000 
247.993403 192.281171 9.375000 
240.159538 203.017995 9.375000 
231.745053 213.174265 9.375000 
222.749957 222.749957 9.375000 
213.174265 231.745053 9.375000 
203.017995 240.159538 9.375000 
192.281171 247.993403 9.375000 
180.963818 255.246641 9.375000 
169.065965 261.919251 9.375000 
156.587646 268.011236 9.375000 
143.528893 273.522603 9.375000 
129.889742 278.453364 9.375000 
115.670232 282.803533 9.375000 
100.870399 286.573127 9.375000 
85.490281 289.762169 9.375000 
69.529915 292.370681 9.375000 
52.989340 294.398689 9.375000 
35.868588 295.846220 9.375000 
18.186024 296.713011 9.375000 
0.000000 297.000000 9.375000 
300.000000 0.000000 18.750000 
299.710112 18.369721 18.750000 
298.834566 36.230897 18.750000 
297.372413 53.524585 18.750000 
295.323921 70.232238 18.750000 
292.689060 86.353819 18.750000 
289.467805 101.889292 18.750000 
285.660134 116.838618 18.750000 
281.266024 131.201760 18.750000 
276.285458 144.978679 18.750000 
270.718420 158.169339 18.750000 
264.564900 170.773702 18.750000 
257.824890 182.791735 18.750000 
250.498387 194.223405 18.750000 
242.585392 205.068682 18.750000 
234.085912 215.327540 18.750000 
224.999956 224.999956 18.750000 
215.327540 234.085912 18.750000 
205.068682 242.585392 18.750000 
194.223405 250.498387 18.750000 
182.791735 257.824890 18.750000 
170.773702 264.564900 18.750000 
158.169339 270.718420 18.750000 
144.978679 276.285458 18.750000 
131.201760 281.266024 18.750000 
116.838618 285.660134 18.750000 
101.889292 289.467805 18.750000 
86.353819 292.689060 18.750000 
70.232238 295.323921 18.750000 
53.524585 297.372413 18.750000 
36.230897 298.834566 18.750000 
18.369721 299.710112 18.750000 
0.000000 300.000000 18.750000 
297.000000 0.000000 18.750000 
296.713011 18.186024 18.750000 
295.846220 35.868588 18.750000 
294.398689 52.989340 18.750000 
292.370681 69.529915 18.750000 
289.762169 85.490281 18.750000 
286.573127 100.870399 18.750000 
282.803533 115.670232 18.750000 
278.453364 129.889742 18.750000 
273.522603 143.528893 18.750000 
268.011236 156.587646 18.750000 
261.919251 169.065965 18.750000 
255.246641 180.963818 18.750000 
247.993403 192.281171 18.750000 
240.159538 203.017995 18.750000 
231.745053 213.174265 18.750000 
222.749957 222.749957 18.750000 
213.174265 231.745053 18.750000 
203.017995 240.159538 18.750000 
192.281171 247.993403 18.750000 
180.963818 255.246641 18.750000 
169.065965 261.919251 18.750000 
156.587646 268.011236 18.750000 
143.528893 273.522603 18.750000 
129.889742 278.453364 18.750000 
115.670232 282.803533 18.750000 
100.870399 286.573127 18.750000 
85.490281 289.762169 18.750000 
69.529915 292.370681 18.750000 
52.989340 294.398689 18.750000 
35.868588 295.846220 18.750000 
18.186024 296.713011 18.750000 
0.000000 297.000000 18.750000 
300.000000 0.000000 28.125000 
299.710112 18.369721 28.125000 
298.834566 36.230897 28.125000 
297.372413 53.524585 28.125000 
295.323921 70.232238 28.125000 
292.689060 86.353819 28.125000 
289.467805 101.889292 28.125000 
285.660134 116.838618 28.125000 
281.266024 131.201760 28.125000 
276.285458 144.978679 28.125000 
270.718420 158.169339 28.125000 
264.564900 170.773702 28.125000 
257.824890 182.791735 28.125000 
250.498387 194.223405 28.125000 
242.585392 205.068682 28.125000 
234.085912 215.327540 28.125000 
224.999956 224.999956 28.125000 
215.327540 234.085912 28.125000 
205.068682 242.585392 28.125000 
194.223405 250.498387 28.125000 
182.791735 257.824890 28.125000 
170.773702 264.564900 28.125000 
158.169339 270.718420 28.125000 
144.978679 276.285458 28.125000 
131.201760 281.266024 28.125000 
116.838618 285.660134 28.125000 
101.889292 289.467805 28.125000 
86.353819 292.689060 28.125000 
70.232238 295.323921 28.125000 
53.524585 297.372413 28.125000 
36.230897 298.834566 28.125000 
18.369721 299.710112 28.125000 
0.000000 300.000000 28.125000 
297.000000 0.000000 28.125000 
296.713011 18.186024 28.125000 
295.846220 35.868588 28.125000 
294.398689 52.989340 28.125000 
292.370681 69.529915 28.125000 
289.762169 85.490281 28.125000 
286.573127 100.870399 28.125000 
282.803533 115.670232 28.125000 
278.453364 129.889742 28.125000 
273.522603 143.528893 28.125000 
268.011236 156.587646 28.125000 
261.919251 169.065965 28.125000 
255.246641 180.963818 28.125000 
247.993403 192.281171 28.125000 
240.159538 203.017995 28.125000 
231.745053 213.174265 28.125000 
222.749957 222.749957 28.125000 
213.174265 231.745053 28.125000 
203.017995 240.159538 28.125000 
192.281171 247.993403 28.125000 
180.963818 255.246641 28.125000 
169.065965 261.919251 28.125000 
156.587646 268.011236 28.125000 
143.528893 273.522603 28.125000 
129.889742 278.453364 28.125000 
115.670232 282.803533 28.125000 
100.870399 286.573127 28.125000 
85.490281 289.762169 28.125000 
69.529915 292.370681 28.125000 
52.989340 294.398689 28.125000 
35.868588 295.846220 28.125000 
18.186024 296.713011 28.125000 
0.000000 297.000000 28.125000 
300.000000 0.000000 37.500000 
299.710112 18.369721 37.500000 
298.834566 36.230897 37.500000 
297.372413 53.524585 37.500000 
295.323921 70.232238 37.500000 
292.689060 86.353819 37.500000 
289.467805 101.889292 37.500000 
285.660134 116.838618 37.500000 
281.266024 131.201760 37.500000 
276.285458 144.978679 37.500000 
270.718420 158.169339 37.500000 
264.564900 170.773702 37.500000 
257.824890 182.791735 37.500000 
250.498387 194.223405 37.500000 
242.585392 205.068682 37.500000 
234.085912 215.327540 37.500000 
224.999956 224.999956 37.500000 
215.327540 234.085912 37.500000 
205.068682 242.585392 37.500000 
194.223405 250.498387 37.500000 
182.791735 257.824890 37.500000 
170.773702 264.564900 37.500000 
158.169339 270.718420 37.500000 
144.978679 276.285458 37.500000 
131.201760 281.266024 37.500000 
116.838618 285.660134 37.500000 
101.889292 289.467805 37.500000 
86.353819 292.689060 37.500000 
70.232238 295.323921 37.500000 
53.524585 297.372413 37.500000 
36.230897 298.834566 37.500000 
18.369721 299.710112 37.500000 
0.000000 300.000000 37.500000 
297.000000 0.000000 37.500000 
296.713011 18.186024 37.500000 
295.846220 35.868588 37.500000 
294.398689 52.989340 37.500000 
292.370681 69.529915 37.500000 
289.762169 85.490281 37.500000 
286.573127 100.870399 37.500000 
[...]
<PointData  Vectors="sigma"> 
<DataArray  type="Float64"  Name="sigma" NumberOfComponents="6" format="ascii"> 
-0.000470   -0.000470   -0.001096   0.000000   0.000000   0.000130   
-0.000435   -0.000435   -0.001016   0.000000   -0.000011   0.000120   
-0.000332   -0.000332   -0.000774   0.000000   -0.000013   0.000091   
-0.000162   -0.000162   -0.000378   0.000000   -0.000002   0.000039   
0.000064   0.000064   0.000149   0.000000   0.000027   -0.000034   
0.000329   0.000329   0.000767   0.000000   0.000072   -0.000125   
0.000609   0.000609   0.001421   0.000000   0.000130   -0.000229   
0.000874   0.000874   0.002038   0.000000   0.000193   -0.000338   
0.001087   0.001087   0.002535   0.000000   0.000250   -0.000436   
0.001210   0.001210   0.002822   0.000000   0.000289   -0.000507   
0.001206   0.001206   0.002815   0.000000   0.000297   -0.000529   
0.001047   0.001047   0.002443   0.000000   0.000271   -0.000485   
0.000714   0.000714   0.001666   0.000000   0.000216   -0.000362   
0.000204   0.000204   0.000477   0.000000   0.000148   -0.000159   
-0.000466   -0.000466   -0.001088   0.000000   0.000094   0.000108   
-0.001265   -0.001265   -0.002951   0.000000   0.000084   0.000413   
-0.002141   -0.002141   -0.004996   0.000000   0.000135   0.000724   
-0.003031   -0.003031   -0.007072   0.000000   0.000251   0.001013   
-0.003860   -0.003860   -0.009006   0.000000   0.000411   0.001268   
-0.004548   -0.004548   -0.010611   0.000000   0.000580   0.001490   
-0.005014   -0.005014   -0.011700   0.000000   0.000716   0.001684   
-0.005186   -0.005186   -0.012102   0.000000   0.000786   0.001859   
-0.005003   -0.005003   -0.011674   0.000000   0.000764   0.002010   
-0.004426   -0.004426   -0.010327   0.000000   0.000638   0.002125   
-0.003444   -0.003444   -0.008035   0.000000   0.000404   0.002187   
-0.002083   -0.002083   -0.004861   0.000000   0.000074   0.002176   
-0.000412   -0.000412   -0.000961   0.000000   -0.000335   0.002078   
0.001458   0.001458   0.003401   0.000000   -0.000793   0.001889   
0.003371   0.003371   0.007866   0.000000   -0.001261   0.001615   
0.005142   0.005142   0.011999   0.000000   -0.001691   0.001270   
0.006574   0.006574   0.015338   0.000000   -0.002034   0.000875   
0.007493   0.007493   0.017483   0.000000   -0.002248   0.000448   
0.007799   0.007799   0.018197   0.000000   -0.002313   0.000000   
0.000095   0.000095   0.000223   0.000000   -0.000015   -0.000035   
0.000089   0.000089   0.000207   0.000000   -0.000023   -0.000020   
0.000078   0.000078   0.000181   0.000000   -0.000017   0.000002   
0.000062   0.000062   0.000145   0.000000   0.000007   0.000028   
0.000042   0.000042   0.000099   0.000000   0.000049   0.000051   
0.000018   0.000018   0.000041   0.000000   0.000109   0.000066   
-0.000011   -0.000011   -0.000025   0.000000   0.000179   0.000067   
-0.000041   -0.000041   -0.000095   0.000000   0.000252   0.000049   
-0.000069   -0.000069   -0.000162   0.000000   0.000316   0.000011   
-0.000094   -0.000094   -0.000219   0.000000   0.000358   -0.000041   
-0.000110   -0.000110   -0.000256   0.000000   0.000366   -0.000100   
-0.000114   -0.000114   -0.000267   0.000000   0.000330   -0.000152   
-0.000106   -0.000106   -0.000248   0.000000   0.000244   -0.000179   
-0.000086   -0.000086   -0.000200   0.000000   0.000106   -0.000163   
-0.000057   -0.000057   -0.000132   0.000000   -0.000080   -0.000092   
-0.000023   -0.000023   -0.000054   0.000000   -0.000305   0.000044   
0.000010   0.000010   0.000023   0.000000   -0.000556   0.000245   
0.000038   0.000038   0.000089   0.000000   -0.000814   0.000505   
0.000061   0.000061   0.000141   0.000000   -0.001053   0.000810   
0.000078   0.000078   0.000182   0.000000   -0.001247   0.001140   
0.000093   0.000093   0.000218   0.000000   -0.001369   0.001470   
0.000109   0.000109   0.000255   0.000000   -0.001397   0.001773   
0.000124   0.000124   0.000290   0.000000   -0.001319   0.002020   
0.000133   0.000133   0.000311   0.000000   -0.001136   0.002184   
0.000126   0.000126   0.000294   0.000000   -0.000862   0.002246   
0.000089   0.000089   0.000208   0.000000   -0.000521   0.002194   
0.000012   0.000012   0.000027   0.000000   -0.000149   0.002027   
-0.000110   -0.000110   -0.000257   0.000000   0.000216   0.001753   
-0.000265   -0.000265   -0.000618   0.000000   0.000536   0.001391   
-0.000425   -0.000425   -0.000991   0.000000   0.000782   0.000963   
-0.000550   -0.000550   -0.001284   0.000000   0.000935   0.000493   
-0.000601   -0.000601   -0.001403   0.000000   0.000988   0.000000   
-0.000550   -0.000550   -0.001284   0.000000   0.000935   0.000493   
-0.000006   -0.000228   -0.000789   -0.000000   -0.000000   -0.000003   
-0.000007   -0.000209   -0.000730   0.000009   0.000021   -0.000002   
-0.000008   -0.000152   -0.000556   0.000014   0.000048   -0.000002   
-0.000006   -0.000062   -0.000275   0.000012   0.000085   -0.000006   
-0.000001   0.000054   0.000092   -0.000001   0.000133   -0.000014   
0.000009   0.000185   0.000516   -0.000026   0.000189   -0.000030   
0.000026   0.000317   0.000958   -0.000063   0.000248   -0.000052   
0.000049   0.000434   0.001369   -0.000109   0.000299   -0.000079   
0.000077   0.000517   0.001696   -0.000158   0.000335   -0.000109   
0.000108   0.000549   0.001885   -0.000200   0.000345   -0.000135   
0.000132   0.000516   0.001886   -0.000221   0.000322   -0.000149   
0.000139   0.000411   0.001659   -0.000205   0.000264   -0.000143   
0.000110   0.000235   0.001179   -0.000137   0.000169   -0.000108   
0.000027   0.000003   0.000442   -0.000010   0.000043   -0.000034   
-0.000129   -0.000259   -0.000534   0.000177   -0.000108   0.000085   
-0.000368   -0.000517   -0.001707   0.000410   -0.000276   0.000251   
-0.000686   -0.000736   -0.003012   0.000663   -0.000447   0.000465   
-0.001063   -0.000888   -0.004360   0.000900   -0.000610   0.000719   
-0.001460   -0.000956   -0.005646   0.001087   -0.000748   0.000997   
-0.001828   -0.000940   -0.006751   0.001194   -0.000848   0.001278   
-0.002110   -0.000852   -0.007548   0.001205   -0.000899   0.001535   
-0.002254   -0.000714   -0.007912   0.001118   -0.000896   0.001740   
-0.002218   -0.000549   -0.007732   0.000947   -0.000841   0.001867   
-0.001979   -0.000381   -0.006926   0.000716   -0.000742   0.001896   
-0.001528   -0.000225   -0.005452   0.000455   -0.000613   0.001818   
-0.000881   -0.000094   -0.003331   0.000196   -0.000472   0.001637   
-0.000074   0.000007   -0.000658   -0.000031   -0.000333   0.001375   
0.000835   0.000077   0.002390   -0.000200   -0.000213   0.001063   
0.001767   0.000118   0.005559   -0.000295   -0.000119   0.000746   
0.002632   0.000134   0.008533   -0.000311   -0.000053   0.000466   
0.003335   0.000131   0.010972   -0.000254   -0.000009   0.000253   
0.003795   0.000115   0.012569   -0.000142   0.000023   0.000106   
0.003954   0.000092   0.013113   -0.000001   0.000041   0.000002   
0.000005   -0.000000   0.000011   0.000003   -0.000070   0.000004   
0.000004   0.000011   0.000034   0.000004   -0.000131   0.000012   
0.000003   0.000029   0.000079   0.000003   -0.000175   0.000022   
-0.000000   0.000054   0.000143   -0.000000   -0.000192   0.000032   
-0.000004   0.000084   0.000224   -0.000008   -0.000175   0.000036   
-0.000006   0.000113   0.000314   -0.000020   -0.000119   0.000029   
-0.000007   0.000139   0.000400   -0.000036   -0.000025   0.000005   
-0.000005   0.000155   0.000467   -0.000054   0.000102   -0.000041   
0.000001   0.000154   0.000498   -0.000068   0.000250   -0.000109   
0.000008   0.000132   0.000473   -0.000074   0.000402   -0.000198   
0.000011   0.000083   0.000374   -0.000064   0.000539   -0.000299   
0.000004   0.000009   0.000187   -0.000029   0.000639   -0.000399   
-0.000023   -0.000085   -0.000096   0.000034   0.000687   -0.000478   
-0.000080   -0.000188   -0.000469   0.000127   0.000670   -0.000517   
-0.000173   -0.000283   -0.000915   0.000241   0.000585   -0.000493   
-0.000298   -0.000352   -0.001401   0.000361   0.000437   -0.000390   
-0.000443   -0.000382   -0.001884   0.000467   0.000236   -0.000194   
-0.000588   -0.000368   -0.002314   0.000540   -0.000003   0.000103   
-0.000708   -0.000316   -0.002638   0.000566   -0.000258   0.000498   
-0.000780   -0.000237   -0.002813   0.000543   -0.000507   0.000980   
-0.000790   -0.000150   -0.002805   0.000475   -0.000727   0.001525   
-0.000731   -0.000069   -0.002598   0.000374   -0.000895   0.002097   
-0.000605   -0.000007   -0.002196   0.000255   -0.000997   0.002648   
-0.000424   0.000030   -0.001626   0.000135   -0.001024   0.003126   
-0.000206   0.000041   -0.000939   0.000029   -0.000976   0.003473   
0.000027   0.000030   -0.000202   -0.000054   -0.000863   0.003639   
0.000250   0.000005   0.000508   -0.000106   -0.000702   0.003580   
0.000441   -0.000026   0.001116   -0.000126   -0.000517   0.003274   
0.000585   -0.000053   0.001567   -0.000119   -0.000333   0.002718   
0.000674   -0.000068   0.001837   -0.000091   -0.000176   0.001942   
0.000713   -0.000067   0.001942   -0.000049   -0.000064   0.001009   
0.000721   -0.000053   0.001951   -0.000001   -0.000015   0.000002   
0.000713   -0.000067   0.001942   -0.000049   -0.000064   0.001009   
0.000013   -0.000132   -0.000608   -0.000000   -0.000000   0.000006   
0.000010   -0.000118   -0.000563   0.000007   0.000039   0.000007   
0.000006   -0.000077   -0.000432   0.000009   0.000081   0.000004   
0.000002   -0.000018   -0.000223   0.000006   0.000130   -0.000004   
-0.000002   0.000054   0.000049   -0.000004   0.000186   -0.000019   
-0.000004   0.000128   0.000359   -0.000021   0.000246   -0.000041   
-0.000003   0.000195   0.000681   -0.000045   0.000302   -0.000069   
0.000002   0.000243   0.000982   -0.000071   0.000349   -0.000102   
0.000010   0.000266   0.001224   -0.000094   0.000376   -0.000135   
0.000019   0.000256   0.001372   -0.000108   0.000378   -0.000162   
0.000027   0.000213   0.001392   -0.000107   0.000348   -0.000176   
0.000026   0.000140   0.001257   -0.000083   0.000284   -0.000168   
0.000011   0.000043   0.000948   -0.000033   0.000186   -0.000129   
-0.000026   -0.000064   0.000459   0.000044   0.000056   -0.000050   
-0.000092   -0.000170   -0.000201   0.000144   -0.000101   0.000077   
-0.000189   -0.000262   -0.001010   0.000258   -0.000279   0.000258   
-0.000318   -0.000329   -0.001928   0.000377   -0.000465   0.000495   
-0.000471   -0.000365   -0.002898   0.000487   -0.000644   0.000780   
-0.000638   -0.000366   -0.003847   0.000574   -0.000795   0.001095   
-0.000798   -0.000336   -0.004691   0.000625   -0.000901   0.001411   
-0.000927   -0.000279   -0.005335   0.000630   -0.000946   0.001692   
-0.000996   -0.000206   -0.005681   0.000586   -0.000926   0.001897   
-0.000980   -0.000128   -0.005636   0.000497   -0.000843   0.001991   
-0.000858   -0.000058   -0.005125   0.000371   -0.000713   0.001949   
-0.000622   -0.000006   -0.004102   0.000225   -0.000557   0.001766   
-0.000275   0.000024   -0.002572   0.000077   -0.000400   0.001456   
0.000167   0.000028   -0.000593   -0.000054   -0.000264   0.001059   
0.000672   0.000009   0.001705   -0.000154   -0.000166   0.000632   
0.001195   -0.000029   0.004128   -0.000211   -0.000112   0.000247   
0.001688   -0.000075   0.006431   -0.000220   -0.000094   -0.000030   
0.002099   -0.000126   0.008342   -0.000184   -0.000095   -0.000155   
0.002381   -0.000170   0.009611   -0.000108   -0.000089   -0.000131   
0.002485   -0.000199   0.010050   -0.000002   -0.000076   0.000003   
-0.000005   -0.000045   -0.000112   0.000004   -0.000110   0.000017   
-0.000004   -0.000026   -0.000061   0.000005   -0.000208   0.000028   
-0.000002   0.000005   0.000028   0.000004   -0.000284   0.000041   
-0.000001   0.000046   0.000154   -0.000002   -0.000325   0.000054   
0.000002   0.000094   0.000308   -0.000013   -0.000321   0.000060   
0.000007   0.000145   0.000475   -0.000030   -0.000265   0.000054   
0.000014   0.000190   0.000636   -0.000051   -0.000154   0.000027   
0.000025   0.000222   0.000765   -0.000073   0.000006   -0.000027   
0.000037   0.000233   0.000832   -0.000092   0.000204   -0.000111   
0.000047   0.000215   0.000806   -0.000100   0.000419   -0.000227   
0.000048   0.000164   0.000661   -0.000090   0.000627   -0.000365   
0.000033   0.000080   0.000376   -0.000054   0.000802   -0.000512   
-0.000009   -0.000029   -0.000056   0.000012   0.000919   -0.000646   
-0.000086   -0.000151   -0.000625   0.000108   0.000959   -0.000743   
-0.000201   -0.000269   -0.001303   0.000225   0.000911   -0.000773   
-0.000351   -0.000365   -0.002042   0.000350   0.000776   -0.000709   
-0.000524   -0.000426   -0.002781   0.000464   0.000562   -0.000527   
-0.000700   -0.000445   -0.003447   0.000550   0.000288   -0.000213   
-0.000856   -0.000423   -0.003967   0.000594   -0.000022   0.000239   
-0.000965   -0.000369   -0.004275   0.000590   -0.000339   0.000818   
-0.001008   -0.000294   -0.004317   0.000540   -0.000635   0.001500   
-0.000970   -0.000213   -0.004062   0.000450   -0.000883   0.002246   
-0.000844   -0.000136   -0.003505   0.000335   -0.001062   0.002998   
-0.000636   -0.000072   -0.002670   0.000209   -0.001156   0.003687   
-0.000357   -0.000026   -0.001613   0.000089   -0.001161   0.004236   
-0.000028   0.000005   -0.000418   -0.000013   -0.001083   0.004567   
0.000320   0.000020   0.000808   -0.000087   -0.000940   0.004608   
0.000659   0.000029   0.001953   -0.000128   -0.000754   0.004307   
0.000955   0.000032   0.002907   -0.000135   -0.000559   0.003646   
0.001179   0.000039   0.003593   -0.000113   -0.000384   0.002648   
0.001312   0.000050   0.003975   -0.000066   -0.000252   0.001397   
0.001354   0.000064   0.004084   -0.000002   -0.000192   0.000002   
0.001312   0.000050   0.003975   -0.000066   -0.000252   0.001397   
-0.000005   -0.000062   -0.000508   -0.000000   -0.000000   0.000007   
-0.000006   -0.000051   -0.000472   0.000004   0.000044   0.000008   
-0.000006   -0.000023   -0.000366   0.000005   0.000091   0.000004   
-0.000004   0.000015   -0.000196   0.000001   0.000142   -0.000005   
-0.000000   0.000056   0.000024   -0.000006   0.000199   -0.000021   
0.000005   0.000091   0.000276   -0.000015   0.000260   -0.000044   
0.000012   0.000113   0.000540   -0.000024   0.000319   -0.000074   
0.000019   0.000118   0.000790   -0.000029   0.000370   -0.000110   
0.000024   0.000103   0.000997   -0.000029   0.000405   -0.000146   
0.000024   0.000070   0.001131   -0.000019   0.000417   -0.000178   
0.000018   0.000024   0.001165   0.000000   0.000401   -0.000199   
0.000003   -0.000027   0.001075   0.000028   0.000351   -0.000201   
-0.000022   -0.000076   0.000842   0.000060   0.000265   -0.000174   
-0.000055   -0.000116   0.000460   0.000092   0.000140   -0.000106   
-0.000093   -0.000143   -0.000070   0.000120   -0.000022   0.000014   
-0.000133   -0.000159   -0.000729   0.000139   -0.000214   0.000196   
-0.000172   -0.000165   -0.001489   0.000150   -0.000424   0.000445   
-0.000209   -0.000165   -0.002302   0.000153   -0.000633   0.000754   
-0.000240   -0.000161   -0.003111   0.000150   -0.000817   0.001107   
-0.000264   -0.000153   -0.003842   0.000141   -0.000951   0.001470   
-0.000273   -0.000141   -0.004417   0.000126   -0.001016   0.001799   
-0.000261   -0.000123   -0.004750   0.000103   -0.001002   0.002043   
-0.000217   -0.000101   -0.004759   0.000071   -0.000914   0.002155   
-0.000133   -0.000074   -0.004377   0.000033   -0.000766   0.002103   
-0.000005   -0.000044   -0.003561   -0.000009   -0.000587   0.001876   
0.000166   -0.000013   -0.002307   -0.000049   -0.000406   0.001492   
0.000371   0.000018   -0.000663   -0.000084   -0.000254   0.001002   
0.000599   0.000049   0.001267   -0.000109   -0.000151   0.000482   
0.000827   0.000075   0.003316   -0.000123   -0.000103   0.000025   
0.001042   0.000100   0.005278   -0.000122   -0.000099   -0.000282   
0.001225   0.000109   0.006914   -0.000108   -0.000117   -0.000381   
0.001359   0.000105   0.008005   -0.000071   -0.000122   -0.000268   
0.001408   0.000091   0.008385   -0.000004   -0.000111   0.000003   
0.000002   -0.000071   -0.000173   0.000005   -0.000135   0.000009   
0.000002   -0.000051   -0.000106   0.000007   -0.000254   0.000025   
0.000001   -0.000018   0.000008   0.000005   -0.000346   0.000045   
0.000000   0.000026   0.000162   -0.000001   -0.000398   0.000067   
0.000001   0.000078   0.000345   -0.000013   -0.000397   0.000084   
0.000004   0.000133   0.000541   -0.000030   -0.000337   0.000087   
0.000011   0.000183   0.000725   -0.000053   -0.000215   0.000067   
0.000021   0.000222   0.000867   -0.000077   -0.000037   0.000016   
0.000033   0.000242   0.000936   -0.000100   0.000183   -0.000072   
0.000045   0.000237   0.000902   -0.000114   0.000423   -0.000197   
0.000052   0.000203   0.000737   -0.000113   0.000657   -0.000353   
0.000046   0.000140   0.000424   -0.000090   0.000855   -0.000525   
0.000020   0.000054   -0.000040   -0.000043   0.000991   -0.000692   
-0.000033   -0.000046   -0.000646   0.000031   0.001044   -0.000826   
-0.000120   -0.000146   -0.001365   0.000125   0.001002   -0.000896   
-0.000238   -0.000233   -0.002151   0.000231   0.000863   -0.000870   
-0.000383   -0.000297   -0.002945   0.000336   0.000636   -0.000722   
-0.000543   -0.000330   -0.003676   0.000426   0.000340   -0.000429   
-0.000700   -0.000331   -0.004268   0.000490   -0.000001   0.000019   
-0.000832   -0.000303   -0.004648   0.000516   -0.000357   0.000619   
-0.000917   -0.000253   -0.004752   0.000503   -0.000695   0.001354   
-0.000933   -0.000192   -0.004533   0.000450   -0.000984   0.002185   
-0.000866   -0.000129   -0.003971   0.000364   -0.001194   0.003054   
-0.000706   -0.000073   -0.003078   0.000257   -0.001307   0.003885   
-0.000456   -0.000031   -0.001901   0.000143   -0.001311   0.004584   
-0.000129   -0.000005   -0.000524   0.000035   -0.001211   0.005052   
0.000251   0.000002   0.000938   -0.000053   -0.001023   0.005196   
0.000653   -0.000001   0.002353   -0.000112   -0.000777   0.004939   
0.001031   -0.000017   0.003583   -0.000137   -0.000515   0.004242   
0.001340   -0.000028   0.004516   -0.000127   -0.000277   0.003123   
0.001542   -0.000034   0.005077   -0.000082   -0.000097   0.001666   
0.001613   -0.000028   0.005259   -0.000003   -0.000016   0.000003   
0.001542   -0.000034   0.005077   -0.000082   -0.000097   0.001666   
0.000006   0.000013   -0.000422   -0.000000   -0.000000   0.000003   
0.000004   0.000019   -0.000393   0.000003   0.000043   0.000004   
0.000001   0.000033   -0.000306   0.000002   0.000089   0.000003   
-0.000000   0.000049   -0.000168   -0.000002   0.000141   -0.000005   
-0.000001   0.000059   0.000013   -0.000007   0.000200   -0.000019   
-0.000002   0.000058   0.000222   -0.000011   0.000265   -0.000040   
-0.000003   0.000041   0.000443   -0.000011   0.000333   -0.000070   
-0.000006   0.000008   0.000654   -0.000005   0.000396   -0.000106   
-0.000012   -0.000038   0.000832   0.000009   0.000446   -0.000147   
-0.000022   -0.000091   0.000952   0.000032   0.000475   -0.000187   
-0.000036   -0.000141   0.000990   0.000062   0.000472   -0.000219   
-0.000055   -0.000178   0.000921   0.000094   0.000431   -0.000233   
-0.000075   -0.000195   0.000730   0.000122   0.000346   -0.000217   
-0.000092   -0.000189   0.000408   0.000138   0.000214   -0.000158   
-0.000100   -0.000159   -0.000045   0.000139   0.000037   -0.000043   
-0.000092   -0.000112   -0.000614   0.000122   -0.000176   0.000140   
-0.000066   -0.000056   -0.001275   0.000087   -0.000411   0.000396   
-0.000019   -0.000001   -0.001987   0.000040   -0.000648   0.000720   
0.000048   0.000048   -0.002700   -0.000012   -0.000859   0.001094   
0.000131   0.000084   -0.003349   -0.000065   -0.001019   0.001484   