<?xml version="1.0"?> 
<VTKFile type="StructuredGrid" version="0.1" byte_order="BigEndian" >
  <StructuredGrid  WholeExtent="0 16 0 2 0 16">
  <Piece Extent="0 16 0 2 0 16">
    <PointData Vectors="Disp"  >
      <DataArray type="Float32" Name="Stress" NumberOfComponents="6" format="ascii">
-0.000108   0.065480   -0.001328   0.000435   0.000011   -0.000131   
0.000453   0.064014   -0.001342   -0.005835   -0.000418   -0.000099   
0.002001   0.060334   -0.001341   -0.011206   -0.000762   0.000012   
0.004414   0.054523   -0.001300   -0.015606   -0.001134   0.000214   
0.007302   0.046647   -0.001230   -0.018508   -0.001528   0.000518   
0.010040   0.037234   -0.001111   -0.019379   -0.001927   0.000940   
0.011773   0.026987   -0.000929   -0.017865   -0.002334   0.001503   
0.011463   0.016696   -0.000665   -0.013864   -0.002711   0.002210   
0.007995   0.007269   -0.000318   -0.007629   -0.002964   0.002994   
0.000441   -0.000347   0.000082   0.000067   -0.002966   0.003684   
-0.011522   -0.005377   0.000482   0.007919   -0.002618   0.004024   
-0.027283   -0.007522   0.000839   0.014342   -0.001955   0.003798   
-0.045191   -0.007110   0.001162   0.017918   -0.001161   0.003009   
-0.062748   -0.005062   0.001448   0.017857   -0.000475   0.001930   
-0.077300   -0.002541   0.001709   0.014288   -0.000045   0.000997   
-0.087174   -0.000605   0.001850   0.007938   0.000143   0.000459   
-0.091449   0.000113   0.001777   -0.000927   0.000177   -0.000012   
-0.000209   0.009706   -0.000038   0.000431   0.000014   -0.000342   
-0.000049   0.009614   -0.000012   -0.001125   -0.000036   -0.000354   
0.000290   0.009135   -0.000006   -0.002093   -0.000067   -0.000331   
0.000858   0.008350   0.000030   -0.002945   -0.000090   -0.000286   
0.001631   0.007158   0.000075   -0.003647   -0.000100   -0.000232   
0.002519   0.005500   0.000121   -0.003989   -0.000089   -0.000169   
0.003315   0.003395   0.000140   -0.003751   -0.000058   -0.000107   
0.003712   0.001013   0.000106   -0.002770   -0.000012   -0.000059   
0.003350   -0.001251   0.000006   -0.001072   0.000031   -0.000029   
0.002012   -0.002858   -0.000129   0.000977   0.000057   -0.000014   
-0.000200   -0.003434   -0.000226   0.002767   0.000067   0.000002   
-0.002960   -0.003045   -0.000234   0.003802   0.000085   0.000024   
-0.005927   -0.002100   -0.000152   0.003952   0.000140   0.000055   
-0.008815   -0.001114   -0.000055   0.003438   0.000243   0.000076   
-0.011333   -0.000364   0.000027   0.002622   0.000378   0.000075   
-0.013133   0.000080   0.000036   0.001518   0.000480   0.000048   
-0.013819   0.000260   0.000014   -0.000916   0.000465   -0.000023   
-0.000348   -0.044973   0.001347   0.004005   0.000404   -0.000179   
-0.001423   -0.042258   0.001291   0.007792   0.000741   -0.000269   
-0.003080   -0.037982   0.001212   0.010887   0.001112   -0.000427   
-0.005008   -0.032328   0.001097   0.012781   0.001514   -0.000680   
-0.006763   -0.025822   0.000947   0.013254   0.001939   -0.001048   
-0.007845   -0.019001   0.000751   0.012229   0.002381   -0.001564   
-0.007608   -0.012278   0.000518   0.009681   0.002796   -0.002246   
-0.005268   -0.006020   0.000265   0.005665   0.003074   -0.003034   
-0.000021   -0.000674   0.000000   0.000454   0.003072   -0.003751   
0.008569   0.003186   -0.000277   -0.005221   0.002695   -0.004113   
0.020060   0.005100   -0.000583   -0.010153   0.002007   -0.003886   
0.033002   0.005093   -0.000910   -0.013055   0.001231   -0.003063   
0.045282   0.003695   -0.001265   -0.013076   0.000627   -0.001946   
0.054930   0.001872   -0.001576   -0.010195   0.000322   -0.000988   
0.061185   0.000485   -0.001812   -0.005455   0.000230   -0.000445   
0.064064   0.000012   -0.001828   -0.000921   0.000186   -0.000035   
0.061185   0.000485   -0.001812   -0.005455   0.000230   -0.000445   
-0.000074   0.057928   0.007280   0.000440   -0.000002   -0.000123   
0.000423   0.056601   0.007175   -0.005135   0.000040   -0.000128   
0.001773   0.053273   0.006997   -0.009840   0.000065   -0.000134   
0.003868   0.048057   0.006747   -0.013667   0.000031   -0.000126   
0.006356   0.041029   0.006340   -0.016162   -0.000105   -0.000068   
0.008691   0.032706   0.005743   -0.016875   -0.000370   0.000094   
0.010134   0.023732   0.004897   -0.015530   -0.000754   0.000412   
0.009807   0.014787   0.003717   -0.012059   -0.001171   0.000892   
0.006753   0.006616   0.002134   -0.006678   -0.001456   0.001427   
0.000154   -0.000008   0.000142   -0.000025   -0.001425   0.001764   
-0.010316   -0.004438   -0.002147   0.006803   -0.001000   0.001590   
-0.024159   -0.006398   -0.004486   0.012438   -0.000318   0.000748   
-0.039941   -0.006132   -0.006558   0.015616   0.000309   -0.000535   
-0.055429   -0.004412   -0.008108   0.015610   0.000597   -0.001651   
-0.068242   -0.002243   -0.009044   0.012521   0.000515   -0.001979   
-0.076949   -0.000563   -0.009583   0.006976   0.000284   -0.001322   
-0.080798   0.000066   -0.009968   -0.000970   0.000164   0.000019   
-0.000230   -0.000397   -0.000118   0.000437   -0.000002   0.000216   
-0.000184   -0.000344   -0.000082   -0.000038   0.000067   0.000206   
-0.000187   -0.000397   -0.000087   0.000024   0.000139   0.000183   
-0.000189   -0.000431   -0.000077   0.000106   0.000220   0.000140   
-0.000183   -0.000481   -0.000060   0.000130   0.000307   0.000072   
-0.000156   -0.000553   -0.000036   0.000143   0.000387   -0.000022   
-0.000121   -0.000627   -0.000015   0.000176   0.000440   -0.000132   
-0.000068   -0.000669   -0.000004   0.000229   0.000440   -0.000234   
0.000014   -0.000638   -0.000012   0.000282   0.000381   -0.000303   
0.000143   -0.000505   -0.000042   0.000285   0.000288   -0.000339   
0.000342   -0.000287   -0.000077   0.000190   0.000200   -0.000379   
0.000594   -0.000056   -0.000087   0.000008   0.000134   -0.000469   
0.000826   0.000132   -0.000041   -0.000179   0.000070   -0.000605   
0.000948   0.000216   0.000055   -0.000248   -0.000030   -0.000698   
0.000906   0.000242   0.000170   -0.000085   -0.000161   -0.000641   
0.000756   0.000256   0.000253   0.000077   -0.000280   -0.000387   
0.000647   0.000291   0.000289   -0.000962   -0.000337   0.000016   
-0.000517   -0.057491   -0.007303   0.005158   0.000051   -0.000130   
-0.001916   -0.054330   -0.007169   0.010071   0.000130   -0.000147   
-0.004106   -0.049266   -0.006954   0.014183   0.000285   -0.000199   
-0.006727   -0.042405   -0.006578   0.016865   0.000560   -0.000331   
-0.009206   -0.034218   -0.005995   0.017726   0.000963   -0.000596   
-0.010808   -0.025257   -0.005137   0.016495   0.001446   -0.001027   
-0.010555   -0.016107   -0.003903   0.013019   0.001889   -0.001592   
-0.007354   -0.007496   -0.002229   0.007429   0.002121   -0.002149   
-0.000287   -0.000301   -0.000141   0.000334   0.002003   -0.002456   
0.010942   0.004651   0.002212   -0.007091   0.001534   -0.002283   
0.025627   0.006918   0.004583   -0.013301   0.000881   -0.001568   
0.042060   0.006730   0.006711   -0.016838   0.000307   -0.000529   
0.057804   0.004861   0.008356   -0.016788   0.000010   0.000399   
0.070442   0.002506   0.009418   -0.013137   -0.000001   0.000810   
0.078752   0.000720   0.010049   -0.007070   0.000110   0.000610   
0.082339   0.000102   0.010475   -0.000971   0.000165   0.000013   
0.078752   0.000720   0.010049   -0.007070   0.000110   0.000610   
-0.000087   0.058227   0.014730   0.000443   -0.000002   -0.000058   
0.000412   0.056911   0.014540   -0.005165   0.000294   -0.000084   
0.001772   0.053625   0.014127   -0.009908   0.000544   -0.000155   
0.003889   0.048466   0.013480   -0.013787   0.000694   -0.000245   
0.006415   0.041478   0.012492   -0.016342   0.000676   -0.000305   
0.008797   0.033146   0.011119   -0.017104   0.000449   -0.000257   
0.010282   0.024101   0.009293   -0.015774   0.000032   -0.000034   
0.009964   0.015037   0.006919   -0.012266   -0.000459   0.000371   
0.006876   0.006744   0.003907   -0.006808   -0.000823   0.000829   
0.000218   0.000034   0.000229   -0.000075   -0.000849   0.001056   
-0.010310   -0.004438   -0.003992   0.006813   -0.000451   0.000705   
-0.024223   -0.006415   -0.008421   0.012489   0.000217   -0.000390   
-0.040118   -0.006151   -0.012552   0.015695   0.000793   -0.001937   
-0.055767   -0.004424   -0.015884   0.015698   0.000951   -0.003179   
-0.068748   -0.002242   -0.018135   0.012606   0.000675   -0.003332   
-0.077608   -0.000550   -0.019472   0.007035   0.000263   -0.002141   
-0.081596   0.000082   -0.020162   -0.001014   0.000071   0.000020   
-0.000234   -0.002414   -0.000156   0.000440   -0.000002   0.000201   
-0.000205   -0.002322   -0.000125   0.000139   0.000069   0.000193   
-0.000254   -0.002252   -0.000137   0.000364   0.000144   0.000168   
-0.000327   -0.002078   -0.000137   0.000574   0.000224   0.000124   
-0.000398   -0.001846   -0.000125   0.000666   0.000299   0.000058   
-0.000432   -0.001585   -0.000094   0.000674   0.000348   -0.000021   
-0.000417   -0.001316   -0.000046   0.000625   0.000346   -0.000091   
-0.000327   -0.001052   0.000009   0.000540   0.000275   -0.000118   
-0.000149   -0.000788   0.000042   0.000436   0.000152   -0.000084   
0.000133   -0.000504   0.000020   0.000288   0.000030   -0.000015   
0.000565   -0.000198   -0.000060   0.000054   -0.000037   0.000013   
0.001173   0.000078   -0.000146   -0.000262   -0.000037   -0.000080   
0.001926   0.000279   -0.000140   -0.000575   -0.000021   -0.000294   
0.002709   0.000340   0.000007   -0.000715   -0.000058   -0.000510   
0.003338   0.000316   0.000255   -0.000501   -0.000163   -0.000560   
0.003682   0.000283   0.000480   -0.000159   -0.000283   -0.000366   
0.003733   0.000296   0.000564   -0.001006   -0.000341   0.000016   
-0.000535   -0.061756   -0.014759   0.005544   -0.000189   -0.000041   
-0.002040   -0.058393   -0.014403   0.010826   -0.000323   0.000005   
-0.004397   -0.052973   -0.013812   0.015250   -0.000342   0.000051   
-0.007217   -0.045591   -0.012868   0.018134   -0.000197   0.000040   
-0.009874   -0.036733   -0.011494   0.019036   0.000118   -0.000088   
-0.011559   -0.027015   -0.009602   0.017653   0.000536   -0.000366   
-0.011236   -0.017133   -0.007084   0.013859   0.000910   -0.000743   
-0.007798   -0.007935   -0.003894   0.007873   0.001069   -0.001064   
-0.000359   -0.000350   -0.000104   0.000394   0.000902   -0.001098   
0.011388   0.004834   0.004093   -0.007376   0.000436   -0.000645   
0.026848   0.007234   0.008409   -0.013923   -0.000138   0.000305   
0.044433   0.007093   0.012524   -0.017778   -0.000547   0.001454   
0.061662   0.005166   0.016056   -0.017909   -0.000608   0.002273   
0.075813   0.002673   0.018695   -0.014146   -0.000368   0.002309   
0.085264   0.000752   0.020404   -0.007661   -0.000062   0.001464   
0.089310   0.000078   0.021228   -0.001015   0.000069   0.000012   
0.085264   0.000752   0.020404   -0.007661   -0.000062   0.001464   
-0.000079   0.060344   0.018584   0.000446   -0.000002   0.000152   
0.000437   0.058999   0.018337   -0.005355   0.000368   0.000119   
0.001849   0.055620   0.017747   -0.010280   0.000680   0.000026   
0.004049   0.050294   0.016807   -0.014313   0.000866   -0.000098   
0.006673   0.043050   0.015419   -0.016968   0.000852   -0.000191   
0.009141   0.034380   0.013566   -0.017747   0.000590   -0.000168   
0.010663   0.024950   0.011212   -0.016337   0.000111   0.000049   
0.010308   0.015521   0.008288   -0.012671   -0.000459   0.000468   
0.007114   0.006945   0.004697   -0.007028   -0.000906   0.000962   
0.000306   0.000053   0.000357   -0.000124   -0.001006   0.001241   
-0.010425   -0.004528   -0.004682   0.006920   -0.000653   0.000925   
-0.024676   -0.006570   -0.010119   0.012758   0.000019   -0.000215   
-0.041139   -0.006331   -0.015368   0.016118   0.000626   -0.001917   
-0.057567   -0.004581   -0.019749   0.016206   0.000795   -0.003362   
-0.071374   -0.002340   -0.022811   0.013077   0.000477   -0.003634   
-0.080893   -0.000585   -0.024641   0.007327   0.000001   -0.002379   
-0.085230   0.000065   -0.025523   -0.001066   -0.000218   0.000021   
-0.000238   -0.001601   -0.000197   0.000444   -0.000002   0.000231   
-0.000199   -0.001513   -0.000168   0.000049   0.000057   0.000223   
-0.000220   -0.001454   -0.000183   0.000185   0.000119   0.000200   
-0.000242   -0.001305   -0.000183   0.000306   0.000185   0.000156   
-0.000241   -0.001124   -0.000162   0.000318   0.000242   0.000095   
-0.000189   -0.000957   -0.000106   0.000271   0.000267   0.000026   
-0.000097   -0.000838   -0.000014   0.000220   0.000231   -0.000020   
0.000021   -0.000780   0.000090   0.000211   0.000125   -0.000007   
0.000129   -0.000747   0.000150   0.000272   -0.000030   0.000085   
0.000220   -0.000666   0.000102   0.000352   -0.000175   0.000230   
0.000360   -0.000480   -0.000066   0.000343   -0.000247   0.000339   
0.000648   -0.000218   -0.000266   0.000170   -0.000227   0.000307   
0.001144   0.000055   -0.000324   -0.000128   -0.000171   0.000100   
0.001793   0.000214   -0.000127   -0.000362   -0.000162   -0.000173   
0.002395   0.000268   0.000269   -0.000272   -0.000236   -0.000325   
0.002757   0.000278   0.000652   -0.000043   -0.000339   -0.000250   
0.002801   0.000302   0.000793   -0.001057   -0.000390   0.000017   
-0.000549   -0.062225   -0.018646   0.005583   -0.000263   0.000177   
-0.002062   -0.058789   -0.018123   0.010893   -0.000461   0.000238   
-0.004425   -0.053245   -0.017243   0.015319   -0.000521   0.000300   
-0.007236   -0.045693   -0.015887   0.018164   -0.000392   0.000304   
-0.009850   -0.036656   -0.013985   0.018982   -0.000077   0.000180   
-0.011461   -0.026810   -0.011477   0.017502   0.000344   -0.000100   
-0.011074   -0.016922   -0.008303   0.013665   0.000712   -0.000481   
-0.007679   -0.007854   -0.004468   0.007767   0.000851   -0.000795   
-0.000464   -0.000459   -0.000054   0.000503   0.000646   -0.000796   
0.010931   0.004600   0.004797   -0.007040   0.000122   -0.000266   
0.026136   0.007017   0.009901   -0.013513   -0.000521   0.000821   
0.043827   0.006992   0.015007   -0.017512   -0.000981   0.002132   
0.061608   0.005171   0.019680   -0.017894   -0.001043   0.003051   
0.076548   0.002712   0.023416   -0.014292   -0.000756   0.003023   
0.086701   0.000780   0.025923   -0.007793   -0.000386   0.001904   
0.091080   0.000090   0.027048   -0.001067   -0.000218   0.000013   
0.086701   0.000780   0.025923   -0.007793   -0.000386   0.001904   
-0.000071   0.061587   0.019286   0.000450   -0.000002   0.000104   
0.000455   0.060204   0.019009   -0.005463   0.000339   0.000073   
0.001894   0.056723   0.018335   -0.010481   0.000620   -0.000015   
0.004130   0.051223   0.017264   -0.014574   0.000775   -0.000127   
0.006785   0.043745   0.015722   -0.017236   0.000734   -0.000205   
0.009256   0.034813   0.013726   -0.017962   0.000458   -0.000163   
0.010743   0.025152   0.011282   -0.016459   -0.000023   0.000074   
0.010335   0.015580   0.008348   -0.012709   -0.000587   0.000518   
0.007121   0.006970   0.004825   -0.007045   -0.001042   0.001063   
0.000375   0.000110   0.000575   -0.000189   -0.001178   0.001446   
-0.010243   -0.004451   -0.004466   0.006801   -0.000861   0.001280   
-0.024482   -0.006526   -0.010079   0.012666   -0.000181   0.000260   
-0.041226   -0.006349   -0.015665   0.016152   0.000505   -0.001455   
-0.058279   -0.004641   -0.020413   0.016386   0.000778   -0.003063   
-0.072889   -0.002395   -0.023738   0.013330   0.000531   -0.003542   
-0.083114   -0.000611   -0.025702   0.007517   0.000073   -0.002405   
-0.087865   0.000052   -0.026662   -0.001128   -0.000150   0.000024   
-0.000242   -0.000728   -0.000222   0.000448   -0.000002   0.000112   
-0.000196   -0.000652   -0.000196   -0.000028   0.000033   0.000107   
-0.000196   -0.000631   -0.000218   0.000036   0.000072   0.000089   
-0.000186   -0.000546   -0.000224   0.000096   0.000119   0.000056   
-0.000147   -0.000453   -0.000200   0.000066   0.000162   0.000007   
-0.000060   -0.000395   -0.000121   0.000002   0.000180   -0.000043   
0.000050   -0.000401   0.000014   -0.000035   0.000145   -0.000068   
0.000150   -0.000473   0.000175   0.000007   0.000048   -0.000030   
0.000188   -0.000567   0.000284   0.000151   -0.000095   0.000097   
0.000148   -0.000604   0.000243   0.000340   -0.000235   0.000298   
0.000097   -0.000517   0.000008   0.000456   -0.000305   0.000497   
0.000155   -0.000311   -0.000319   0.000391   -0.000274   0.000565   
0.000424   -0.000042   -0.000487   0.000139   -0.000178   0.000428   
0.000898   0.000147   -0.000298   -0.000125   -0.000110   0.000151   
0.001391   0.000238   0.000209   -0.000098   -0.000125   -0.000077   
0.001698   0.000276   0.000733   0.000057   -0.000192   -0.000121   
0.001700   0.000305   0.000927   -0.001118   -0.000238   0.000019   
-0.000558   -0.061709   -0.019375   0.005535   -0.000276   0.000128   
-0.002056   -0.058247   -0.018782   0.010791   -0.000480   0.000188   
-0.004389   -0.052659   -0.017783   0.015151   -0.000539   0.000249   
-0.007147   -0.045055   -0.016264   0.017911   -0.000407   0.000246   
-0.009681   -0.035981   -0.014173   0.018635   -0.000087   0.000118   
-0.011199   -0.026167   -0.011484   0.017083   0.000337   -0.000163   
-0.010762   -0.016425   -0.008186   0.013266   0.000714   -0.000540   
-0.007464   -0.007620   -0.004327   0.007538   0.000876   -0.000855   
-0.000579   -0.000523   -0.000000   0.000587   0.000700   -0.000864   
0.010290   0.004329   0.004711   -0.006618   0.000189   -0.000320   
0.024986   0.006710   0.009741   -0.012906   -0.000477   0.000838   
0.042486   0.006792   0.014973   -0.016977   -0.000978   0.002296   
0.060539   0.005102   0.020007   -0.017605   -0.001064   0.003374   
0.076064   0.002717   0.024227   -0.014224   -0.000755   0.003408   
0.086810   0.000801   0.027150   -0.007809   -0.000341   0.002180   
0.091518   0.000104   0.028457   -0.001129   -0.000153   0.000013   
0.086810   0.000801   0.027150   -0.007809   -0.000341   0.002180   
-0.000075   0.061959   0.018907   0.000454   -0.000002   0.000008   
0.000454   0.060550   0.018619   -0.005495   0.000296   -0.000020   
0.001899   0.056995   0.017919   -0.010533   0.000536   -0.000094   
0.004140   0.051381   0.016818   -0.014621   0.000663   -0.000188   
0.006783   0.043758   0.015257   -0.017243   0.000611   -0.000244   
0.009219   0.034686   0.013274   -0.017899   0.000347   -0.000186   
0.010651   0.024936   0.010898   -0.016323   -0.000104   0.000058   
0.010200   0.015372   0.008107   -0.012546   -0.000634   0.000504   
0.007019   0.006864   0.004804   -0.006944   -0.001074   0.001067   
0.000444   0.000148   0.000819   -0.000242   -0.001241   0.001530   
-0.009876   -0.004308   -0.003996   0.006579   -0.000988   0.001521   
-0.023850   -0.006372   -0.009536   0.012368   -0.000330   0.000667   
-0.040599   -0.006254   -0.015202   0.015921   0.000413   -0.001015   
-0.058057   -0.004614   -0.020078   0.016309   0.000798   -0.002776   
-0.073354   -0.002399   -0.023462   0.013389   0.000637   -0.003481   
-0.084266   -0.000612   -0.025420   0.007610   0.000206   -0.002465   
-0.089480   0.000042   -0.026423   -0.001194   -0.000022   0.000025   
-0.000243   -0.000382   -0.000235   0.000451   -0.000002   -0.000002   
-0.000194   -0.000315   -0.000212   -0.000061   0.000016   -0.000006   
-0.000184   -0.000318   -0.000243   -0.000029   0.000041   -0.000016   
-0.000158   -0.000272   -0.000256   0.000008   0.000078   -0.000039   
-0.000101   -0.000228   -0.000227   -0.000036   0.000118   -0.000073   
0.000002   -0.000222   -0.000127   -0.000102   0.000139   -0.000109   
0.000124   -0.000277   0.000049   -0.000132   0.000116   -0.000121   
0.000227   -0.000396   0.000263   -0.000072   0.000037   -0.000075   
0.000250   -0.000534   0.000424   0.000103   -0.000088   0.000057   
0.000167   -0.000617   0.000402   0.000340   -0.000223   0.000282   
0.000037   -0.000574   0.000119   0.000523   -0.000308   0.000543   
-0.000016   -0.000393   -0.000333   0.000522   -0.000287   0.000716   
0.000142   -0.000112   -0.000638   0.000288   -0.000179   0.000672   
0.000544   0.000107   -0.000499   -0.000013   -0.000064   0.000423   
0.001007   0.000223   0.000083   -0.000031   -0.000025   0.000141   
0.001310   0.000276   0.000735   0.000095   -0.000054   -0.000005   
0.001281   0.000304   0.000978   -0.001182   -0.000086   0.000021   
-0.000552   -0.061382   -0.019018   0.005505   -0.000263   0.000031   
-0.002041   -0.057895   -0.018417   0.010725   -0.000453   0.000090   
-0.004354   -0.052268   -0.017402   0.015039   -0.000501   0.000146   
-0.007074   -0.044611   -0.015858   0.017737   -0.000364   0.000143   
-0.009548   -0.035493   -0.013737   0.018384   -0.000051   0.000020   
-0.010988   -0.025682   -0.011034   0.016766   0.000364   -0.000246   
-0.010500   -0.016034   -0.007768   0.012947   0.000742   -0.000612   
-0.007261   -0.007420   -0.004026   0.007336   0.000927   -0.000934   
-0.000634   -0.000567   0.000072   0.000635   0.000794   -0.000978   
0.009773   0.004091   0.004461   -0.006266   0.000313   -0.000470   
0.023983   0.006423   0.009171   -0.012362   -0.000363   0.000727   
0.041277   0.006595   0.014214   -0.016484   -0.000915   0.002335   
0.059605   0.005027   0.019279   -0.017354   -0.001034   0.003621   
0.075765   0.002707   0.023706   -0.014196   -0.000707   0.003777   
0.087190   0.000803   0.026873   -0.007855   -0.000239   0.002469   
0.092298   0.000099   0.028316   -0.001195   -0.000019   0.000016   
0.087190   0.000803   0.026873   -0.007855   -0.000239   0.002469   
-0.000078   0.062052   0.018633   0.000460   -0.000002   -0.000010   
0.000450   0.060622   0.018338   -0.005502   0.000271   -0.000036   
0.001896   0.057019   0.017624   -0.010539   0.000491   -0.000103   
0.004131   0.051329   0.016510   -0.014605   0.000609   -0.000187   
0.006757   0.043612   0.014946   -0.017183   0.000566   -0.000237   
0.009153   0.034453   0.012985   -0.017776   0.000325   -0.000183   
0.010529   0.024662   0.010660   -0.016141   -0.000090   0.000046   
0.010037   0.015132   0.007965   -0.012350   -0.000583   0.000462   
0.006885   0.006740   0.004819   -0.006817   -0.001011   0.001004   
0.000475   0.000177   0.001049   -0.000275   -0.001217   0.001500   
-0.009520   -0.004161   -0.003558   0.006350   -0.001059   0.001632   
-0.023132   -0.006193   -0.009022   0.012020   -0.000481   0.000961   
-0.039753   -0.006126   -0.014808   0.015604   0.000286   -0.000663   
-0.057512   -0.004561   -0.019877   0.016136   0.000761   -0.002586   
-0.073472   -0.002392   -0.023377   0.013376   0.000667   -0.003540   
-0.085117   -0.000608   -0.025356   0.007671   0.000241   -0.002626   
-0.090883   0.000054   -0.026416   -0.001274   0.000005   0.000034   
-0.000242   -0.000337   -0.000242   0.000457   -0.000002   -0.000007   
-0.000194   -0.000273   -0.000225   -0.000066   0.000013   -0.000011   
-0.000183   -0.000282   -0.000266   -0.000035   0.000038   -0.000019   
-0.000158   -0.000245   -0.000288   0.000005   0.000077   -0.000040   
-0.000102   -0.000209   -0.000259   -0.000035   0.000121   -0.000071   
-0.000002   -0.000206   -0.000140   -0.000099   0.000145   -0.000107   
0.000119   -0.000257   0.000072   -0.000133   0.000129   -0.000121   
0.000223   -0.000363   0.000337   -0.000082   0.000062   -0.000087   
0.000244   -0.000487   0.000555   0.000082   -0.000051   0.000024   
0.000156   -0.000571   0.000581   0.000312   -0.000190   0.000236   
0.000008   -0.000553   0.000289   0.000513   -0.000308   0.000532   
-0.000080   -0.000403   -0.000268   0.000553   -0.000336   0.000800   
0.000043   -0.000131   -0.000738   0.000335   -0.000249   0.000867   
0.000451   0.000099   -0.000706   0.000001   -0.000125   0.000667   
0.000959   0.000224   -0.000098   -0.000042   -0.000057   0.000345   
0.001315   0.000280   0.000664   0.000095   -0.000067   0.000103   
0.001264   0.000299   0.000951   -0.001259   -0.000106   0.000025   
-0.000548   -0.061369   -0.018762   0.005504   -0.000245   0.000010   
-0.002036   -0.057847   -0.018168   0.010717   -0.000418   0.000065   
-0.004342   -0.052164   -0.017159   0.015013   -0.000455   0.000117   
-0.007044   -0.044432   -0.015610   0.017670   -0.000321   0.000114   
-0.009478   -0.035234   -0.013473   0.018255   -0.000026   -0.000001   
-0.010858   -0.025373   -0.010746   0.016569   0.000366   -0.000253   
-0.010315   -0.015747   -0.007475   0.012718   0.000733   -0.000606   
-0.007094   -0.007243   -0.003778   0.007164   0.000934   -0.000941   
-0.000642   -0.000565   0.000194   0.000633   0.000841   -0.001035   
0.009389   0.003921   0.004352   -0.006011   0.000399   -0.000595   
0.023144   0.006182   0.008778   -0.011908   -0.000295   0.000605   
0.040233   0.006424   0.013617   -0.016056   -0.000917   0.002378   
0.058878   0.004970   0.018668   -0.017165   -0.001104   0.003924   
0.075796   0.002711   0.023265   -0.014236   -0.000775   0.004250   
0.088058   0.000807   0.026670   -0.007950   -0.000253   0.002850   
0.093674   0.000081   0.028258   -0.001275   -0.000004   0.000015   
0.088058   0.000807   0.026670   -0.007950   -0.000253   0.002850   
-0.000080   0.062115   0.018562   0.000457   -0.000002   -0.000006   
0.000451   0.060667   0.018254   -0.005507   0.000253   -0.000022   
0.001896   0.057027   0.017521   -0.010538   0.000464   -0.000088   
0.004128   0.051274   0.016383   -0.014590   0.000582   -0.000167   
0.006736   0.043479   0.014808   -0.017130   0.000551   -0.000222   
0.009096   0.034243   0.012842   -0.017666   0.000335   -0.000173   
0.010422   0.024411   0.010541   -0.015977   -0.000057   0.000032   
0.009886   0.014905   0.007886   -0.012165   -0.000520   0.000420   
0.006751   0.006607   0.004836   -0.006683   -0.000927   0.000924   
0.000472   0.000180   0.001245   -0.000278   -0.001163   0.001428   
-0.009223   -0.004039   -0.003157   0.006160   -0.001096   0.001687   
-0.022434   -0.006028   -0.008521   0.011690   -0.000628   0.001229   
-0.038838   -0.005996   -0.014457   0.015273   0.000130   -0.000294   
-0.056851   -0.004506   -0.019845   0.015936   0.000699   -0.002398   
-0.073515   -0.002384   -0.023591   0.013342   0.000679   -0.003664   
-0.086011   -0.000612   -0.025670   0.007728   0.000246   -0.002864   
-0.092481   0.000009   -0.026853   -0.001367   -0.000022   0.000031   
-0.000243   -0.000375   -0.000250   0.000454   -0.000002   0.000000   
-0.000194   -0.000310   -0.000238   -0.000061   0.000013   0.000004   
-0.000184   -0.000317   -0.000291   -0.000028   0.000039   -0.000008   
-0.000158   -0.000279   -0.000322   0.000009   0.000084   -0.000026   
-0.000103   -0.000242   -0.000290   -0.000028   0.000128   -0.000063   
-0.000001   -0.000231   -0.000152   -0.000093   0.000154   -0.000094   
0.000121   -0.000270   0.000093   -0.000130   0.000136   -0.000115   
0.000231   -0.000362   0.000399   -0.000087   0.000078   -0.000090   
0.000264   -0.000473   0.000670   0.000066   -0.000021   -0.000003   
0.000175   -0.000549   0.000759   0.000289   -0.000155   0.000181   
0.000017   -0.000549   0.000502   0.000506   -0.000294   0.000497   
-0.000107   -0.000429   -0.000125   0.000593   -0.000378   0.000857   
-0.000020   -0.000162   -0.000775   0.000398   -0.000331   0.001059   
0.000406   0.000083   -0.000913   0.000028   -0.000201   0.000940   
0.000996   0.000225   -0.000334   -0.000065   -0.000112   0.000584   
0.001444   0.000285   0.000513   0.000076   -0.000105   0.000233   
0.001384   0.000292   0.000835   -0.001349   -0.000128   0.000026   
-0.000549   -0.061489   -0.018703   0.005514   -0.000229   0.000022   
-0.002039   -0.057925   -0.018114   0.010733   -0.000387   0.000069   
-0.004343   -0.052177   -0.017101   0.015015   -0.000415   0.000119   
-0.007034   -0.044362   -0.015535   0.017643   -0.000293   0.000112   
-0.009435   -0.035067   -0.013356   0.018170   -0.000019   0.000010   
-0.010758   -0.025139   -0.010584   0.016416   0.000345   -0.000231   
-0.010157   -0.015505   -0.007270   0.012521   0.000700   -0.000571   
-0.006925   -0.007073   -0.003563   0.006994   0.000911   -0.000914   
-0.000599   -0.000531   0.000354   0.000593   0.000864   -0.001069   
0.009105   0.003792   0.004370   -0.005822   0.000475   -0.000716   
0.022380   0.005958   0.008556   -0.011483   -0.000226   0.000452   
0.039181   0.006247   0.013194   -0.015610   -0.000934   0.002390   
0.058125   0.004914   0.018231   -0.016959   -0.001213   0.004280   
0.075919   0.002724   0.023014   -0.014299   -0.000898   0.004854   
0.089217   0.000822   0.026683   -0.008076   -0.000315   0.003349   
0.095510   0.000084   0.028455   -0.001368   -0.000009   0.000023   
0.089217   0.000822   0.026683   -0.008076   -0.000315   0.003349   
-0.000077   0.062189   0.018569   0.000475   -0.000003   0.000012   
0.000452   0.060739   0.018259   -0.005511   0.000231   -0.000025   
0.001898   0.057061   0.017484   -0.010547   0.000434   -0.000077   
0.004126   0.051254   0.016325   -0.014582   0.000558   -0.000163   
0.006721   0.043384   0.014726   -0.017090   0.000542   -0.000212   
0.009050   0.034072   0.012760   -0.017573   0.000341   -0.000183   
0.010323   0.024188   0.010451   -0.015829   -0.000024   0.000015   
0.009753   0.014695   0.007824   -0.011998   -0.000471   0.000375   
0.006611   0.006476   0.004825   -0.006549   -0.000843   0.000840   
0.000431   0.000162   0.001383   -0.000253   -0.001073   0.001326   
-0.008999   -0.003940   -0.002754   0.006007   -0.001106   0.001681   
-0.021793   -0.005875   -0.007964   0.011385   -0.000750   0.001482   
-0.037885   -0.005869   -0.014016   0.014943   -0.000043   0.000131   
-0.056079   -0.004441   -0.019807   0.015708   0.000619   -0.002125   
-0.073515   -0.002377   -0.023978   0.013290   0.000708   -0.003779   
-0.087016   -0.000613   -0.026274   0.007787   0.000281   -0.003178   