<?xml version="1.0"?> 
<VTKFile type="UnstructuredGrid" version="0.1"> 
<UnstructuredGrid> 
<Piece NumberOfPoints="11264" NumberOfCells="8624"> 
<PointData Vectors="fields">
<DataArray type="Float32" Name="stress" format="ascii" NumberOfComponents="3"> 
2550.83 20267.2 -1065.73 2483.52 20803.4 -23.3866 2543.25 20348.9 -985.204 2483.33 20788.9 -116.986 2529.87 20467.7 -846.98 2487 20754 -271.381 2513.02 20589.8 -665.403 2497.27 20688.8 -463.815 702.879 26688.6 -2404.06 471.656 27236.1 -46.9875 664.568 26777.4 -2207.83 472.413 27230.6 -249.029 608.306 26906.8 -1879.76 481.262 27205.1 -584.847 550.768 27039.1 -1461.41 506.353 27143.1 -1008.77 2516.36 20596.4 -1127.35 2442.31 21138 -24.2447 2507.22 20679.9 -1041.76 2441.59 21124.2 -123.003 2491.62 20801.2 -895.072 2444.85 21090.1 -286.019 2472.62 20925.2 -702.681 2455.48 21025.1 -489.389 775.46 25693.6 -2230.37 565.636 26246.1 -44.4373 741.924 25784.1 -2049.31 566.838 26240.4 -232.512 692.146 25915.6 -1746.12 575.799 26214.8 -544.881 640.415 26049 -1358.71 599.6 26153 -938.765 2326.32 21157.9 -1250.48 2236.32 21706.7 -25.4316 2314.53 21244.5 -1154.48 2235.69 21694.6 -134.449 2295.04 21369.6 -990.521 2239.6 21662.3 -314.582 2272.11 21496.8 -776.338 2251.94 21598 -539.679 1004.71 24335 -1972.98 825.349 24892.6 -39.4103 977.705 24427.2 -1814.36 826.929 24886.1 -206.864 936.827 24560.3 -1547.87 835.722 24860.1 -484.658 893.141 24694.4 -1206.07 857.46 24798.3 -834.29 1926.19 21953.2 -1442.48 1810.66 22508.6 -28.0376 1910.6 22043.1 -1329.93 1811.01 22498.6 -152.817 1885.62 22172.6 -1138.78 1816.83 22468.9 -359.249 1857.06 22303.3 -890.604 1832.32 22405.7 -617.792 1423.51 23019.2 -1693.63 1276.87 23578 -33.1112 1402.82 23111.3 -1559.3 1278.21 23570.2 -178.184 1370.65 23243.9 -1332.51 1285.99 23542.8 -418.517 1335.05 23377.2 -1040 1304.92 23480.6 -720.284 -1281.68 7780.96 -2834.34 -1040.02 9500.21 -2565.18 -1264.52 7935.8 -2821.41 -1064.21 9362.98 -2597.87 -1234.73 8189.34 -2795.8 -1102.74 9131.51 -2648.13 -1194.7 8503.4 -2756.1 -1148.66 8832.42 -2704.51 1769.59 2330.96 -2151.47 3121.97 4450.79 -3654.32 1900.67 2491.28 -2276.54 3025.99 4252.2 -3524.3 2112.7 2766.07 -2485.35 2857.8 3929.56 -3309.27 2369.73 3128.32 -2751.31 2630.46 3534.88 -3039.08 -1201.44 7678.1 -2879.66 -947.243 9457.74 -2646.03 -1182.88 7836.52 -2870.27 -972.427 9313.43 -2676.37 -1151.01 8096.46 -2850.38 -1012.54 9071.13 -2722.41 -1108.67 8419.63 -2817.59 -1060.43 8759.92 -2772.91 1418.58 3022.57 -2285.53 2505.25 5048.02 -3526.56 1526.41 3178.3 -2391.13 2430.38 4860.5 -3421.61 1699.8 3443.93 -2566.51 2298.16 4555.15 -3247.03 1908.26 3791.97 -2788.19 2117.6 4180.2 -3025.9 -966.51 7268.69 -2888.12 -689.259 9101.77 -2767.36 -944.09 7428.55 -2888.47 -714.698 8949.49 -2788.49 -906.675 7692.01 -2884.79 -755.865 8695.47 -2818.99 -858.795 8021.78 -2872.44 -806.277 8372.07 -2849.51 837.318 4085.4 -2472.99 1592.27 6009.31 -3330.11 914.467 4237.54 -2549.72 1542.07 5834.9 -3261.6 1037.57 4494.93 -2675.66 1452.63 5549.68 -3145.93 1183.94 4828.66 -2832.13 1329.06 5197.06 -2996.43 -508.037 6440.25 -2812.91 -169.537 8292.92 -2921.71 -476.279 6597.26 -2831.83 -195.897 8134.49 -2922.56 -425.009 6857.85 -2859.43 -240.417 7872.09 -2919.66 -362.596 7187.31 -2887.36 -298.251 7541.37 -2908.47 139.975 5302.46 -2662.5 628.733 7169.95 -3114.09 189.892 5455.37 -2708.22 595.593 7005.31 -3083.53 269.319 5711.51 -2781.29 537.128 6734.49 -3029.42 363.566 6039.42 -2868.41 457.086 6396.61 -2955.15 773.317 9943.6 406.042 885.144 9901.22 -0.450404 789.723 9937.26 375.829 881.878 9901.92 38.3177 813.852 9927.81 323.844 874.135 9904.34 100.969 839.075 9917.81 254.937 859.996 9909.58 177.089 1277.57 10360.3 440.289 1437.17 10327.5 12.0602 1301.73 10354.1 406.3 1434.93 10327.1 50.7392 1337.75 10345.2 348.842 1426.26 10327.6 114.047 1375.74 10336.6 274.43 1406.79 10330.5 192.418 811.753 9974.73 409.442 927.676 9933.18 0.655566 828.647 9968.36 378.865 923.971 9933.64 39.4292 853.439 9958.87 326.337 915.622 9935.76 102.175 879.322 9948.87 256.863 900.862 9940.76 178.561 1229.56 10318.4 437.651 1384.96 10284.6 12.0036 1252.87 10312 403.879 1382.06 10284 50.4403 1287.47 10302.9 346.774 1372.92 10284.5 113.362 1323.87 10293.9 272.802 1353.75 10287.5 191.269 877.119 10027.4 414.81 999.765 9987.17 2.80274 894.885 10021 383.625 995.531 9987.26 41.4902 920.901 10011.4 330.216 986.387 9988.9 104.251 948.029 10001.4 259.865 970.672 9993.51 180.928 1152.3 10252.5 433.252 1300.86 10217.1 11.0823 1174.28 10245.9 399.909 1297.12 10216.5 49.332 1206.73 10236.5 343.45 1287.43 10216.9 111.907 1240.73 10227.1 270.19 1268.82 10220.3 189.304 962.724 10096.4 421.164 1093.78 10057.7 5.79299 981.71 10089.9 389.224 1089.26 10057.4 44.2778 1009.51 10080.2 334.749 1079.48 10058.6 106.911 1038.5 10070.3 263.385 1062.69 10062.7 183.792 1058.67 10174.6 427.563 1198.75 10137.6 8.86955 1079.13 10168 394.857 1194.38 10137 47.1509 1109.16 10158.4 339.31 1184.41 10137.7 109.649 1140.53 10148.6 266.944 1166.61 10141.4 186.713 485.209 10055.4 689.427 764.84 9946.84 420.381 512.695 10043.4 672.362 746.35 9953.76 449.133 557.379 10024.7 641.674 712.888 9966 494.397 611.629 10003.4 598.673 666.234 9982.98 547.262 868.139 10452.6 758.617 1265.2 10363.6 456.573 907.603 10443.9 739.919 1238.48 10370.4 489.23 971.252 10430 706.009 1190.73 10381.9 540.548 1047.93 10413.4 658.056 1124.82 10396.7 600.281 512.8 10084.5 696.038 803.011 9977.98 423.966 541.385 10072.8 678.809 783.917 9984.9 453.084 587.849 10054.6 647.817 749.294 9997.06 498.906 644.23 10033.8 604.368 700.926 10013.8 552.389 829.945 10412.3 753.585 1217.59 10321.8 453.829 868.463 10403.4 735.022 1191.68 10328.7 486.262 930.66 10389.2 701.374 1145.21 10340.3 537.211 1005.66 10372.4 653.804 1080.86 10355.4 596.489 560.398 10134.1 706.749 867.912 10030.7 429.645 590.772 10122.9 689.265 847.778 10037.6 459.383 640.116 10105.5 657.787 811.21 10049.7 506.146 699.943 10085.5 613.602 760.03 10066.1 560.674 769.167 10348.9 744.831 1140.97 10255.8 449.211 806.088 10339.6 726.484 1116.35 10262.9 481.199 865.812 10324.9 693.267 1071.96 10274.7 531.431 937.927 10307.5 646.354 1010.23 10290.1 589.858 623.954 10199.6 719.788 952.885 10099.8 436.393 656.524 10189 702.008 931.373 10106.8 466.911 709.385 10172.6 669.943 892.309 10118.8 514.867 773.401 10153.5 624.845 837.632 10134.9 570.718 696.72 10274.2 733.108 1048.09 10178 443.191 731.575 10264.3 715.032 1025.02 10185 474.51 788.059 10248.8 682.363 983.226 10197 523.696 856.366 10230.7 636.31 924.865 10212.7 580.927 -355.695 9611.56 -38.9338 -287.696 9879.02 112.093 -351.744 9637.5 -23.4264 -295.427 9859 101.939 -344.477 9679.04 1.21588 -307.407 9824.84 83.9745 -333.997 9729.03 30.4043 -321.076 9779.85 59.3048 -623.247 9569.32 -237.166 -550.907 9827.3 19.3155 -618.784 9595.44 -212.922 -558.668 9809.67 0.0228995 -610.65 9637.12 -173.666 -570.91 9778.61 -33.0574 -599.115 9686.75 -125.827 -585.224 9736.17 -76.7162 -374.655 9604.29 -50.8186 -306.447 9868.7 108.911 -370.667 9630.05 -34.5717 -314.186 9849 98.0051 -363.351 9671.26 -8.70656 -326.18 9815.35 78.8017 -352.824 9720.75 22.0232 -339.871 9770.97 52.5799 -597.049 9567.43 -214.5 -525.522 9823.61 32.7995 -592.631 9593.24 -190.978 -533.237 9805.83 14.3224 -584.602 9634.4 -152.953 -545.377 9774.69 -17.4097 -573.23 9683.44 -106.72 -559.529 9732.43 -59.383 -407.791 9593.13 -72.2972 -339.268 9853.29 101.999 -403.737 9618.64 -54.8133 -347.003 9834.04 89.8393 -396.33 9659.38 -26.9001 -358.998 9801.12 68.567 -385.721 9708.2 6.41387 -372.712 9757.59 39.7469 -554.848 9567.34 -179.638 -484.368 9821.75 52.4939 -550.507 9592.78 -157.332 -492.047 9803.72 35.3485 -542.635 9633.36 -121.368 -504.08 9772.4 5.82058 -531.492 9681.76 -77.8029 -518.037 9730.27 -33.3886 -452.535 9581.15 -102.8 -383.59 9837.45 90.107 -448.391 9606.45 -83.7434 -391.297 9818.68 76.3497 -440.856 9646.8 -53.2183 -403.278 9786.47 52.4347 -430.118 9695.05 -16.5995 -417.022 9743.72 20.2889 -503.947 9571.8 -140.118 -434.374 9826.02 72.9929 -499.703 9597.06 -119.373 -442.053 9807.66 57.4974 -492.006 9637.31 -86.0303 -454.032 9776 30.703 -481.088 9685.39 -45.8277 -467.846 9733.74 -5.06866 -372.888 9235.57 -260.164 -357.496 9598.72 -46.6306 -373.872 9269.96 -240.184 -360.942 9571.67 -62.8077 -374.499 9325.69 -207.721 -365.837 9525.09 -90.526 -373.563 9393.65 -167.994 -370.508 9463.33 -127.043 -634.026 9158.84 -553.731 -625.285 9556.36 -249.077 -636.423 9198.88 -526.819 -629.086 9528.81 -273.83 -639.074 9262.76 -482.521 -634.164 9480.51 -315.432 -640.098 9338.89 -427.249 -638.368 9414.92 -368.879 -391.598 9227.01 -280.276 -376.476 9591.52 -58.8747 -392.693 9261.66 -259.702 -379.96 9564.58 -75.7859 -393.457 9317.8 -226.218 -384.903 9518.06 -104.699 -392.621 9386.19 -185.143 -389.599 9456.19 -142.681 -608.841 9161.51 -522.894 -599.071 9554.63 -226.067 -611.095 9200.96 -496.625 -602.86 9527.38 -250.118 -613.514 9264 -453.399 -607.975 9479.57 -290.577 -614.272 9339.29 -399.492 -612.314 9414.58 -342.61 -424.255 9213.04 -315.293 -409.647 9580.48 -80.9536 -425.533 9248.24 -293.754 -413.193 9553.7 -99.0886 -426.531 9305.23 -258.61 -418.209 9507.24 -129.986 -425.877 9374.48 -215.334 -422.93 9445.11 -170.389 -568.054 9168.31 -474.579 -556.84 9554.71 -190.622 -570.086 9206.78 -449.33 -560.596 9527.81 -213.488 -572.156 9268.43 -407.821 -565.743 9480.6 -252.024 -572.527 9342.33 -356.132 -570.253 9416.48 -301.699 -468.233 9196.28 -362.751 -454.435 9568.6 -112.218 -469.745 9232.4 -340.017 -458.059 9541.94 -131.903 -471.056 9290.7 -302.811 -463.15 9495.45 -165.305 -470.671 9361.27 -256.794 -467.865 9432.87 -208.746 -518.541 9180.32 -418.17 -505.896 9559.27 -150.351 -520.314 9217.59 -394.151 -509.595 9532.59 -171.693 -521.994 9277.55 -354.739 -514.736 9485.86 -207.765 -521.961 9349.77 -305.798 -519.383 9422.6 -254.444 1401.29 13730.6 -2232.52 2105.72 15343.5 -2332.6 1470.11 13859.9 -2241.3 2055.42 15198 -2326.58 1580.96 14077.6 -2256.6 1967.82 14960.3 -2314.7 1714.7 14358.1 -2276.45 1849.91 14666.2 -2297.17 4214.16 14899.8 -7259.37 3493.72 18629.3 -7232 4169.18 15221.8 -7286.62 3569.19 18319.3 -7264.86 4087.31 15754.9 -7320.1 3689.65 17801 -7306.55 3971.34 16425.5 -7341.09 3832.1 17140.3 -7336.56 1498.54 13791.8 -2369.17 2183.11 15482.4 -2489.72 1566.56 13927.2 -2380.34 2135.16 15329.6 -2482.67 1675.64 14155 -2399.37 2051.28 15080.1 -2468.79 1806.41 14448.8 -2423.48 1937.66 14771.7 -2448.16 3678.41 14504.8 -6586.93 3122.62 17940.8 -6576.22 3646.02 14799.1 -6611.71 3182.49 17652.1 -6603.63 3585.54 15287 -6642.64 3277.78 17171.1 -6638 3497.54 15902.4 -6663.2 3389.65 16560.5 -6661.75 1667.75 13813.9 -2750.26 2249.45 15675.4 -2878.29 1727.77 13963.4 -2764.07 2210.48 15507.6 -2872.47 1823.09 14214.9 -2786.6 2141.61 15233.4 -2859.91 1935.75 14538.7 -2813.63 2046.95 14894.2 -2839.64 2979.9 14072.9 -5573.95 2694.5 17078.3 -5594.71 2968.67 14326.6 -5595.36 2729.59 16821.1 -5613.41 2944.02 14748.5 -5623.18 2784.42 16395.1 -5635.78 2902.64 15282.9 -5644.24 2846.49 15857.9 -5648.81 1935.9 13785.9 -3462.75 2293.21 15935.6 -3568.87 1977.24 13960.6 -3478.73 2272.92 15743.9 -3568.49 2041.1 14253.6 -3503.05 2235.54 15429.9 -3563.69 2113.49 14629.4 -3529.24 2181.22 15040 -3550.74 2364.32 13826.5 -4458.55 2407.25 16373.8 -4522.44 2379.58 14037.4 -4476.86 2413.51 16151 -4531.03 2399.63 14389.6 -4502.44 2420.63 15784.2 -4539.15 2415.92 14838.6 -4525.71 2422.93 15325.4 -4538.76 -460.487 11330.5 478.349 168.853 11556.1 734.182 -414.925 11353.6 504.202 108.993 11541.3 716.612 -335.446 11390.4 545.444 11.6544 11514.7 685.703 -228.7 11434.3 594.575 -107.194 11477.8 643.564 -370.69 11787.4 297.352 389.929 12128.2 561.644 -313.646 11819.5 324.603 319.56 12103 543.904 -215.123 11871.7 367.838 204.383 12059.3 512.537 -84.4415 11935.6 418.947 62.4106 12001.2 469.462 -456.117 11365 468.359 183.742 11597.7 725.628 -409.668 11388.6 494.387 123.006 11582.3 707.983 -328.706 11426.4 535.896 24.1961 11554.7 676.931 -220.07 11471.6 585.322 -96.5333 11516.4 634.582 -381.534 11743.5 318.198 366.694 12071.2 582.782 -325.606 11774.6 345.41 297.286 12047.1 564.969 -228.919 11825 388.612 183.753 12005.4 533.494 -100.524 11886.7 439.731 43.9363 11949.8 490.313 -447.502 11423.8 449.579 209.871 11669.2 709.038 -399.563 11448.4 475.883 147.691 11652.7 691.284 -316.111 11487.9 517.808 46.4498 11623.2 660.025 -204.317 11535.3 567.69 -77.3994 11582.6 617.36 -398.231 11673.1 350.521 330.184 11980.5 615.049 -344.077 11702.5 377.624 262.322 11958.3 597.162 -250.315 11750.3 420.698 151.431 11919.7 565.587 -125.566 11808.5 471.74 15.0697 11867.7 522.329 -434.212 11501.1 421.92 245.57 11764.2 683.717 -384.34 11527.1 448.539 181.571 11746.1 665.861 -297.671 11569 490.931 77.2505 11714 634.4 -181.814 11619.4 541.312 -50.5688 11670.1 591.415 -416.997 11587.9 387.344 287.477 11872.6 650.968 -364.965 11615.7 414.246 221.503 11852.5 633.06 -274.712 11660.4 457.047 113.829 11817.2 601.48 -154.351 11714.6 507.843 -18.3386 11769.5 558.278 2393.89 11775.1 424.618 2623.93 11815.8 7.47361 2428.2 11777.5 391.632 2619.74 11811.5 45.435 2479.31 11782 335.877 2606.23 11804.7 107.396 2533.28 11788.6 263.624 2577.72 11796.5 183.849 2798.31 12782.4 328.504 3026.07 12898.8 5.97111 2832.71 12794 302.173 3021.76 12890.7 34.6961 2883.62 12812.6 258.107 3008.42 12876.5 81.7445 2936.94 12834.9 201.703 2980.52 12857.2 140.164 2428.29 11843 420.002 2659.33 11888.5 7.30781 2462.72 11845.9 387.337 2655 11884 44.8467 2513.97 11851.3 332.143 2641.31 11876.6 106.12 2568.08 11858.9 260.645 2612.64 11867.7 181.73 2762.49 12674.6 340.719 2991.57 12782.3 6.25673 2796.99 12685.1 313.542 2987.14 12774.6 36.1433 2848.07 12702.1 267.994 2973.59 12761.2 85.0664 2901.62 12722.6 209.589 2945.45 12743.2 145.754 2484.86 11961.4 411.047 2717.04 12015.4 7.11628 2519.44 11965.4 379.003 2712.53 12010.4 43.8092 2570.86 11972.3 324.898 2698.63 12002.1 103.711 2625.1 11981.6 254.876 2669.79 11992 177.655 2704.24 12506.6 359.119 2935.07 12601.2 6.58308 2738.86 12515.6 330.667 2930.5 12594.2 38.2365 2790.16 12530.1 282.885 2916.7 12582 90.0092 2844.02 12547.7 221.454 2888.22 12565.9 154.139 2555.86 12122.6 397.287 2788.59 12188.3 6.96493 2590.54 12128 366.195 2783.94 12182.6 42.3278 2642.05 12137.1 313.767 2769.91 12173.2 100.081 2696.32 12148.7 246.023 2741.01 12161.4 171.427 2632.18 12312.1 379.249 2864.42 12391.9 6.81651 2666.87 12319.2 349.405 2859.76 12385.5 40.4224 2718.34 12330.9 299.174 2845.76 12374.8 95.3425 2772.48 12345.5 234.418 2816.99 12360.8 163.27 -2959.98 923.577 -1250.6 -2304.19 2135.02 -1878.34 -2901.18 1012.23 -1304.37 -2356.19 2013.79 -1824.06 -2804.52 1163.77 -1392.89 -2444.24 1821.61 -1734.82 -2684.39 1364.46 -1504.01 -2558.45 1593.41 -1623.16 -6068.91 -664.909 1435.31 -4238.32 -662.716 1222.08 -5926.81 -674.432 1434.84 -4405.69 -675.189 1258.73 -5684.85 -687.416 1427.13 -4679.4 -690.041 1311.62 -5368.66 -697.563 1404.75 -5017.23 -698.982 1364.59 -3078.28 830.062 -1163.06 -2360.33 2008.07 -1796.37 -3015.01 915.343 -1216.15 -2418.4 1888.91 -1740.4 -2910.59 1061.37 -1304 -2516.2 1700.55 -1648.9 -2780.04 1255.43 -1415.11 -2642.19 1477.82 -1535.27 -5481.04 -385.015 1070.53 -3792.79 -228.227 787.388 -5348.1 -381.861 1061.84 -3945.05 -254.265 827.595 -5122.48 -373.599 1041.37 -4194.89 -291.468 887.397 -4829.05 -356.544 1004.51 -4504.79 -328.358 950.896 -3280.28 690.773 -949.326 -2442.97 1773.17 -1570.34 -3208.34 767.714 -999.367 -2512.52 1661.86 -1513.45 -3088.88 899.912 -1083 -2628.88 1486.61 -1421.2 -2938.18 1076.62 -1190.26 -2777.39 1280.67 -1308.09 -4723.67 -27.3761 530.795 -3248.72 366.029 146.185 -4605.29 -5.24887 510.257 -3379.29 318.519 191.777 -4405.25 34.892 471.446 -3594.55 246.329 261.849 -4146.76 92.9964 413.749 -3863.33 166.292 340.707 -3587.34 517.226 -572.447 -2572.38 1421.43 -1145.63 -3502.35 579.689 -615.695 -2658.76 1326.26 -1090.26 -3360.25 687.655 -689.263 -2802.48 1177.21 -1001.54 -3179.38 833.354 -785.855 -2984.38 1003.54 -894.673 -4058.43 286.024 -53.7694 -2821.25 946.029 -543.116 -3957.1 329.189 -86.6594 -2928.7 873.685 -491.904 -3786.72 404.722 -144.479 -3106.65 761.404 -411.214 -3568.11 508.564 -223.621 -3330.34 632.473 -316.585 -473.732 5559.76 -2011.7 -828.245 6817.06 -2060.85 -506.467 5666.36 -2027.76 -799.703 6712.55 -2068.6 -559.334 5844.41 -2049.53 -752.054 6537.11 -2076.52 -623.906 6070.46 -2068.35 -691.005 6312.85 -2077.79 -740.478 4757.77 -2254.74 -1060.34 6184.68 -2398.63 -769.075 4876.73 -2279.83 -1033.41 6063.82 -2399.42 -815.51 5076.2 -2316.23 -989.047 5862.01 -2395.28 -872.784 5330.86 -2352.85 -933.159 5605.79 -2380.49 -491.984 5503.47 -2034.76 -845.763 6774.38 -2090.24 -524.578 5611.1 -2051.46 -817.195 6668.6 -2097.56 -577.238 5790.92 -2074.25 -769.543 6491.09 -2104.72 -641.606 6019.29 -2094.29 -708.558 6264.3 -2104.94 -712.697 4838.28 -2236.58 -1038.49 6249.38 -2370.29 -741.936 4956.12 -2260.75 -1011.22 6130.08 -2371.86 -789.386 5153.64 -2295.62 -966.196 5930.78 -2369.08 -847.846 5405.66 -2330.37 -909.366 5677.56 -2356.04 -523.859 5405.32 -2072.07 -875.779 6698.94 -2138.63 -556.159 5514.64 -2089.87 -847.218 6591.01 -2145.17 -608.382 5697.38 -2114.43 -799.645 6410.04 -2150.98 -672.29 5929.63 -2136.6 -738.875 6179 -2149.37 -668.978 4966.63 -2205.37 -1003.07 6352.3 -2323.22 -699.129 5082.66 -2228.07 -975.318 6235.51 -2326 -748.016 5277.02 -2260.56 -929.404 6040.22 -2325.3 -808.149 5524.8 -2292.37 -871.272 5791.83 -2315 -567.153 5272.73 -2117.49 -915.358 6595.46 -2199.17 -598.954 5384.2 -2136.77 -886.907 6484.76 -2204.64 -650.414 5570.65 -2163.71 -839.61 6299.3 -2208.57 -713.487 5807.84 -2188.74 -779.346 6062.8 -2204.42 -617.694 5119.64 -2164.06 -959.824 6474.39 -2263.57 -648.759 5233.44 -2185.04 -931.646 6360.61 -2267.73 -699.08 5423.93 -2214.74 -884.91 6170.17 -2269.4 -760.863 5666.53 -2243.13 -825.542 5927.63 -2262.23 -1250.65 9686.82 -927.439 -1154.28 10103.2 -483.241 -1245.49 9730.58 -888.335 -1165.44 10076.1 -519.572 -1235.64 9799.72 -823.956 -1182.75 10027.7 -580.489 -1220.96 9880.93 -743.565 -1202.48 9960.52 -658.535 -1489.27 9692.6 -1294.12 -1379.4 10258.2 -790.437 -1483.85 9749.56 -1249.95 -1392.4 10219.3 -831.678 -1473.14 9840.57 -1177.11 -1412.56 10150.9 -900.856 -1456.64 9949.18 -1086 -1435.44 10057.6 -989.491 -1270.87 9689.62 -955.381 -1173.38 10116.5 -506.077 -1265.7 9734.19 -915.866 -1184.77 10088.2 -542.881 -1255.83 9804.64 -850.801 -1202.41 10038.1 -604.561 -1241.08 9887.5 -769.532 -1222.42 9968.96 -683.537 -1469.97 9691.75 -1258.48 -1360.63 10244.4 -760.636 -1464.57 9747.2 -1214.75 -1373.65 10206 -801.373 -1453.94 9835.77 -1142.69 -1393.79 10138.6 -869.698 -1437.6 9941.5 -1052.61 -1416.56 10047.3 -957.249 -1304.82 9692.38 -1002.65 -1205.23 10138.3 -545.183 -1299.63 9738.4 -962.44 -1217.02 10108 -582.699 -1289.69 9811.23 -896.231 -1235.21 10054.8 -645.545 -1274.74 9897.16 -813.521 -1255.73 9982.1 -725.977 -1437.1 9691.59 -1201.69 -1329.15 10222.1 -712.866 -1431.74 9744.73 -1158.69 -1342.11 10184.8 -752.859 -1421.26 9829.5 -1087.88 -1362.06 10119.7 -819.919 -1405.2 9930.64 -999.425 -1384.52 10031.9 -905.835 -1348.1 9693.32 -1064.34 -1245.63 10165.5 -596.863 -1342.87 9741.37 -1023.24 -1257.9 10132.6 -635.191 -1332.78 9817.61 -955.565 -1276.77 10075.3 -699.4 -1317.52 9907.96 -871.037 -1297.98 9997.83 -781.58 -1394.49 9692.53 -1133.6 -1288.98 10194.6 -655.335 -1389.2 9743.05 -1091.52 -1301.68 10159.2 -694.501 -1378.91 9823.45 -1022.25 -1321.19 10097.7 -760.141 -1363.25 9919.13 -935.731 -1343.1 10014.8 -844.194 -330.94 10220.1 591.682 -158.664 10232 741.864 -320.332 10223.8 605.866 -176.231 10234.1 730.666 -300.641 10229 628.879 -204.613 10236.1 711.376 -272.443 10233.8 656.969 -238.696 10236.3 685.805 -432.422 10470.3 620.769 -124.551 10552.8 801.333 -412.829 10480.6 638.875 -156.295 10549.4 788.933 -377.22 10496.4 667.861 -207.072 10542.1 767.063 -327.085 10514.1 702.53 -267.478 10530.2 737.207 -342.33 10234.3 597.099 -158.616 10253.4 749.099 -331.062 10238.7 611.535 -177.371 10254.9 737.849 -310.109 10244.9 634.928 -207.671 10256 718.429 -280.058 10250.9 663.428 -244.054 10254.9 692.615 -425.584 10441.8 620.767 -129.84 10519.4 798.119 -406.996 10451.5 638.518 -160.398 10516.3 785.909 -373.016 10466.5 666.948 -209.319 10509.6 764.389 -324.917 10483.3 700.975 -267.537 10498.4 735.036 -359.76 10260.8 604.713 -157.204 10291.2 760.092 -347.4 10266.1 619.621 -177.949 10291.8 748.748 -324.38 10274 643.724 -211.439 10291.3 729.088 -291.304 10282.1 672.989 -251.608 10288.2 702.829 -413.912 10397.5 619.948 -137.833 10466.5 792.17 -396.834 10406.3 637.092 -166.398 10464 780.223 -365.367 10419.9 664.585 -212.206 10458.4 759.212 -320.508 10435.1 697.552 -266.776 10448.6 730.63 -379.448 10299.2 612.027 -153.185 10343.2 772.278 -365.679 10305.7 627.61 -176.469 10342.7 760.79 -340.038 10315.6 652.73 -213.989 10340.4 740.777 -303.181 10326.2 683.092 -258.893 10334.9 713.87 -398.17 10346.9 617.256 -146.332 10404.3 783.414 -382.779 10354.7 633.631 -172.354 10402.8 771.723 -354.224 10366.5 659.95 -214.181 10398.7 751.246 -313.284 10379.5 691.617 -264.111 10390.8 723.531 -389.201 10140.3 410.487 -335.724 10218.1 584.724 -389.219 10149.2 425.632 -344.917 10213.8 570.303 -387.398 10163 450.649 -358.225 10205.6 546.184 -381.783 10178.8 482.034 -371.612 10193.6 515.404 -593.672 10302.6 394.979 -441.416 10465.2 611.831 -586.128 10319 413.27 -459.311 10454.1 593.359 -571.215 10345.3 443.725 -487.143 10434.6 562.676 -548.274 10376.6 482.345 -518.831 10407.8 523.901 -406.6 10146.8 413.257 -347.406 10232.1 590.014 -406.144 10156.4 428.578 -357.174 10227.1 575.335 -403.559 10171.3 453.902 -371.368 10217.9 550.809 -396.996 10188.4 485.701 -385.787 10204.7 519.548 -574.756 10281.7 399.791 -434.081 10436.9 612.007 -567.951 10297.5 417.683 -450.929 10426.4 593.907 -554.433 10322.7 447.47 -476.977 10407.8 563.858 -533.495 10352.6 485.246 -506.398 10382.4 525.903 -434.933 10160.7 415.965 -365.323 10258 597.388 -433.594 10171.4 431.603 -376.062 10252.1 582.226 -429.576 10188.1 457.482 -391.803 10241.3 556.936 -421.225 10207.4 490.04 -408.083 10225.9 524.776 -544.65 10250 406.59 -421.674 10393 611.491 -539.062 10264.7 423.891 -436.97 10383.4 594.024 -527.773 10288.1 452.676 -460.37 10366.5 565.026 -509.939 10315.8 489.157 -486.399 10343.2 528.4 -470.223 10183.7 416.204 -385.651 10295.9 604.36 -467.623 10195.7 432.295 -397.695 10288.8 588.505 -461.516 10214.6 458.975 -415.579 10276 562.115 -450.525 10236.6 492.631 -434.536 10258 528.653 -508.234 10214.9 412.816 -405.126 10343 609.187 -504.137 10228.3 429.479 -418.734 10334.6 592.516 -495.479 10249.6 457.165 -439.253 10319.7 564.817 -481.178 10274.5 492.185 -461.579 10299 529.785 -55.4474 10441.9 168.274 -50.6435 10060.8 369.928 -59.869 10422.6 184.953 -49.713 10108.4 351.102 -62.8927 10386 212.359 -51.1133 10180.2 321.017 -61.1776 10330.8 246.93 -55.8657 10259.3 284.634 -189.751 10179.6 323.647 -124.81 10052.7 600.799 -194.719 10177.7 348.739 -136.431 10073.9 579.352 -196.989 10171.3 389.958 -154.906 10104.1 542.649 -190.756 10157.4 441.107 -175.209 10134.2 494.537 -63.8921 10410.4 183.311 -58.0743 10051.4 394.527 -68.6701 10392.3 201.014 -57.8841 10096.3 375.3 -72.1821 10357.8 230.107 -60.161 10164.1 344.303 -70.8289 10305.9 266.721 -65.4737 10238.6 306.397 -175.062 10193.2 312.052 -118.668 10046.1 585.463 -180.168 10189.6 336.658 -128.888 10069.1 564.066 -182.876 10180.6 377.104 -145.348 10102.3 527.596 -177.601 10163.1 427.365 -163.627 10136.1 480.007 -79.0332 10362 207.436 -69.6027 10039.9 433.054 -84.2299 10346 226.682 -70.7734 10080.6 413.238 -88.261 10315.5 258.323 -74.747 10141.8 380.877 -87.1386 10269.2 298.026 -81.3258 10208.9 340.682 -152.162 10219.1 292.232 -108.806 10037.6 558.518 -157.473 10212.8 315.97 -116.842 10063.8 537.274 -160.828 10199.2 355.011 -130.186 10102.2 501.319 -156.975 10175.9 403.63 -145.373 10142.3 454.773 -100.244 10307.9 236.511 -83.0356 10032.3 477.875 -105.702 10294.8 257.455 -86.1625 10067.9 457.446 -109.928 10269.5 291.904 -92.7045 10121.2 423.627 -108.496 10230.6 335.009 -101.46 10179.1 380.938 -125.72 10258.1 266.078 -96.5385 10031.7 521.552 -131.195 10248.5 288.576 -102.061 10062.3 500.626 -135.15 10229.1 325.587 -111.877 10107.7 465.555 -132.731 10198.2 371.783 -123.65 10156.2 420.659 56.2178 9384.65 393.053 130.416 9022.99 -2.01574 65.7015 9328.79 375.723 129.048 9029.37 49.9397 80.8193 9246.75 341.054 124.08 9049.74 127.768 98.1681 9161.71 286.036 113.616 9093.06 211.973 207.596 9708.08 577.39 425.5 9499.41 4.04568 236.71 9675.53 548.306 422.92 9504.06 72.4255 282.722 9628.28 491.925 410.031 9516.52 177.816 334.844 9579.98 406.292 380.337 9541.29 296.609 64.8112 9413.41 413.604 151.182 9072.11 -1.34094 75.8936 9360.6 394.987 149.596 9078.13 52.4754 93.5282 9283.08 357.928 143.832 9097.32 133.411 113.726 9202.83 299.521 131.682 9138.12 221.492 190.486 9681.45 566.256 395.337 9465.2 3.75077 217.75 9647.72 537.925 392.762 9469.86 71.1676 260.856 9598.7 482.911 380.474 9482.64 174.927 309.731 9548.52 399.169 352.468 9508.31 291.65 80.8489 9460.49 445.572 187.157 9149.25 -0.266631 94.5741 9412.18 424.951 185.263 9154.8 56.435 116.37 9341.4 384.174 178.247 9172.28 142.194 141.275 9268.25 320.494 163.358 9209.38 236.296 163.826 9637.06 546.044 347.684 9406.78 3.14384 188.141 9601.16 519.047 345.151 9411.49 68.7965 226.609 9548.87 466.472 333.871 9424.88 169.577 270.29 9495.23 386.132 308.6 9452.22 282.531 104.254 9518.9 482.28 235.53 9239.66 0.993439 121.333 9475.45 459.353 233.337 9244.77 60.9907 148.414 9411.9 414.297 224.844 9260.54 152.267 179.285 9346.38 344.555 206.564 9293.74 253.273 133.234 9580.48 517.296 291.436 9329.13 2.19599 153.99 9541.31 492.151 289.022 9333.97 65.3126 186.859 9484.14 442.987 279.051 9348.34 161.825 224.251 9425.35 367.443 257.166 9378.18 269.4 135.22 7306.59 -826.013 -118.121 8034.98 -728.865 111.935 7370.87 -824.426 -97.7302 7976.88 -743.569 74.241 7477.14 -818.953 -63.6479 7878.33 -765.399 28.0901 7610.16 -807.082 -19.9403 7750.53 -788.338 -24.447 6893.92 -1208.55 -327.083 7758.37 -1135.01 -54.2684 6968.54 -1210 -304.686 7687.97 -1148.87 -101.778 7092.68 -1209.19 -266.433 7569.13 -1168.76 -158.564 7249.32 -1202.51 -215.909 7416.07 -1188.37 124.291 7279.43 -855.787 -132.993 8015.51 -759.298 100.453 7344.26 -854.376 -112.499 7956.6 -774.038 61.9266 7451.46 -849.136 -78.1432 7856.78 -795.902 14.8779 7585.72 -837.461 -33.9168 7727.52 -818.824 -8.56686 6936.29 -1172.37 -307.317 7784.96 -1095.44 -38.0461 7009.57 -1173.41 -285.283 7715.76 -1109.41 -85.0104 7131.42 -1171.95 -247.602 7599 -1129.58 -141.13 7285.13 -1164.51 -197.763 7448.75 -1149.69 104.951 7230.88 -906.014 -159.167 7981.21 -811.162 80.1207 7296.71 -904.906 -138.516 7920.82 -825.895 40.1124 7405.64 -900.088 -103.72 7818.68 -847.704 -8.51214 7542.22 -888.818 -58.6231 7686.7 -870.472 16.985 7003.89 -1114.22 -274.953 7828.26 -1032.25 -11.7457 7075.19 -1114.67 -253.388 7761 -1046.41 -57.5612 7193.63 -1112.28 -216.51 7647.61 -1067.04 -112.372 7342.92 -1103.75 -167.745 7501.74 -1087.91 78.4713 7163.55 -971.196 -194.639 7934.61 -879.387 52.3159 7230.84 -970.507 -173.781 7872.16 -894.008 10.341 7342.32 -966.315 -138.413 7766.72 -915.578 -40.3571 7482.34 -955.712 -92.1859 7630.79 -937.938 47.6909 7084.17 -1043.72 -235.24 7881.02 -956.401 20.1321 7153.35 -1043.56 -214.086 7816.15 -970.812 -23.9265 7268.12 -1040.2 -178.017 7706.76 -991.953 -76.8318 7412.54 -1030.54 -130.519 7565.98 -1013.64 443.818 6551.46 -735.803 146.671 7275.38 -826.31 416.21 6608.08 -750.589 170.384 7211.04 -825.885 371.667 6704.89 -772.272 210.072 7104.61 -822.115 317.363 6831.5 -794.535 261.093 6971.48 -811.974 327.937 6012.46 -1043.64 -9.68647 6857.8 -1207.31 299.776 6079.17 -1067.45 20.4763 6783.3 -1203.37 253.17 6192.96 -1102.91 69.5807 6659.77 -1192.69 194.184 6341.33 -1140.51 130.257 6504.82 -1171.87 436.336 6515.86 -759.796 136.02 7247.95 -855.987 408.719 6573.26 -775.273 160.274 7183.05 -855.323 364.058 6671.35 -798.031 200.744 7075.61 -851.042 309.418 6799.53 -821.513 252.55 6941.11 -840.065 340.324 6068.67 -1014.97 6.02379 6900.81 -1171.33 312.396 6134.45 -1037.91 35.845 6827.6 -1167.82 266.194 6246.62 -1072.06 84.4111 6706.17 -1157.92 207.752 6392.79 -1108.18 144.454 6553.73 -1138.19 423.001 6452.63 -800.398 117.183 7198.93 -906.052 395.404 6511.36 -817.043 142.41 7133.01 -904.993 350.583 6611.64 -841.607 184.28 7023.78 -899.87 295.388 6742.51 -867.12 237.48 6886.85 -887.514 359.767 6157.6 -968.556 31.1989 6969.35 -1113.47 332.087 6221.88 -990.104 60.2762 6898.06 -1110.6 286.388 6331.44 -1022.14 107.721 6779.74 -1101.85 228.752 6474.12 -1055.94 166.539 6631.14 -1083.81 404.472 6365.31 -853.188 91.3765 7130.9 -971.017 376.92 6425.79 -871.357 117.908 7063.52 -969.437 331.908 6528.94 -898.258 161.651 6951.76 -963.228 275.994 6663.4 -926.374 216.71 6811.48 -949.116 382.424 6262.32 -911.843 61.3102 7050.63 -1043.27 354.872 6324.74 -931.718 89.227 6981.4 -1041.07 309.586 6431.13 -961.219 134.971 6866.5 -1033.62 252.836 6569.7 -992.214 192.034 6722.19 -1017.55 538.281 7138.06 -232.781 79.6114 8468.92 -172.645 488.117 7240.49 -237.084 112.194 8359.95 -187.348 411.309 7420.63 -240.416 167.107 8171.74 -207.733 323.983 7660.91 -237.791 239.64 7926.07 -226.413 511.723 6921.56 -461.258 27.674 8253.51 -401.805 460.787 7024.56 -474.729 64.0656 8145.89 -425.054 382.224 7205.81 -489.33 124.515 7958.97 -456.273 291.753 7447.46 -494.114 202.745 7713.53 -482.508 537.962 7122.73 -251.709 78.1252 8449.53 -189.643 487.911 7224.83 -256.651 111.038 8340.99 -205.256 411.209 7404.46 -260.691 166.397 8153.45 -226.865 323.869 7644.08 -258.353 239.316 7908.52 -246.565 515.59 6942.89 -440.986 34.8418 8270.62 -379.541 464.886 7045.46 -453.532 70.8789 8163.19 -402.232 386.719 7225.99 -466.921 130.781 7976.69 -432.813 296.775 7466.76 -470.734 208.381 7731.94 -458.765 536.519 7095.97 -283.198 74.3906 8417.76 -218.771 486.576 7197.69 -289.257 107.836 8309.81 -235.812 409.942 7376.7 -294.573 163.927 8123.13 -259.321 322.477 7615.56 -292.854 237.511 7879.13 -280.551 521.482 6977.16 -407.836 45.6779 8299.57 -343.863 471.099 7079.17 -418.91 81.1548 8192.34 -365.564 393.491 7258.77 -430.393 140.2 8006.33 -394.977 304.313 7498.38 -432.735 216.835 7762.44 -420.32 533.169 7059.86 -323.234 67.4716 8378.36 -257.295 483.231 7161.36 -330.806 101.573 8270.92 -276.002 406.493 7340.04 -337.916