<VTKFile type="UnstructuredGrid"  version="0.1"   > 
<UnstructuredGrid> 
<Piece  NumberOfPoints="  1088" NumberOfCells=" 1024"> 
<Points> 
<DataArray  type="Float64"  NumberOfComponents="3"  format="ascii" > 
0.500000 0.000000 0.0 
4.000000 0.000000 0.0 
4.000000 4.000000 0.0 
0.353553 0.353553 0.0 
0.000000 4.000000 0.0 
0.000000 0.500000 0.0 
-0.353553 0.353553 0.0 
-4.000000 4.000000 0.0 
-0.500000 0.000000 0.0 
-4.000000 0.000000 0.0 
-0.353553 -0.353553 0.0 
-4.000000 -4.000000 0.0 
-0.000000 -0.500000 0.0 
-0.000000 -4.000000 0.0 
0.353553 -0.353553 0.0 
4.000000 -4.000000 0.0 
0.718750 0.000000 0.0 
0.937500 0.000000 0.0 
1.156250 0.000000 0.0 
1.375000 0.000000 0.0 
1.593750 0.000000 0.0 
1.812500 0.000000 0.0 
2.031250 0.000000 0.0 
2.250000 0.000000 0.0 
2.468750 0.000000 0.0 
2.687500 0.000000 0.0 
2.906250 0.000000 0.0 
3.125000 0.000000 0.0 
3.343750 0.000000 0.0 
3.562500 0.000000 0.0 
3.781250 0.000000 0.0 
4.000000 0.500000 0.0 
4.000000 1.000000 0.0 
4.000000 1.500000 0.0 
4.000000 2.000000 0.0 
4.000000 2.500000 0.0 
4.000000 3.000000 0.0 
4.000000 3.500000 0.0 
3.772097 3.772097 0.0 
3.544194 3.544194 0.0 
3.316291 3.316291 0.0 
3.088388 3.088388 0.0 
2.860485 2.860485 0.0 
2.632583 2.632583 0.0 
2.404680 2.404680 0.0 
2.176777 2.176777 0.0 
1.948874 1.948874 0.0 
1.720971 1.720971 0.0 
1.493068 1.493068 0.0 
1.265165 1.265165 0.0 
1.037262 1.037262 0.0 
0.809359 0.809359 0.0 
0.581456 0.581456 0.0 
0.497592 0.049009 0.0 
0.490393 0.097545 0.0 
0.478470 0.145142 0.0 
0.461940 0.191342 0.0 
0.440961 0.235698 0.0 
0.415735 0.277785 0.0 
0.386505 0.317197 0.0 
0.000000 3.781250 0.0 
0.000000 3.562500 0.0 
0.000000 3.343750 0.0 
0.000000 3.125000 0.0 
0.000000 2.906250 0.0 
0.000000 2.687500 0.0 
0.000000 2.468750 0.0 
0.000000 2.250000 0.0 
0.000000 2.031250 0.0 
0.000000 1.812500 0.0 
0.000000 1.593750 0.0 
0.000000 1.375000 0.0 
0.000000 1.156250 0.0 
0.000000 0.937500 0.0 
0.000000 0.718750 0.0 
0.317197 0.386505 0.0 
0.277785 0.415735 0.0 
0.235698 0.440961 0.0 
0.191342 0.461940 0.0 
0.145142 0.478470 0.0 
0.097545 0.490393 0.0 
0.049009 0.497592 0.0 
0.500000 4.000000 0.0 
1.000000 4.000000 0.0 
1.500000 4.000000 0.0 
2.000000 4.000000 0.0 
2.500000 4.000000 0.0 
3.000000 4.000000 0.0 
3.500000 4.000000 0.0 
-0.317197 0.386505 0.0 
-0.277785 0.415735 0.0 
-0.235698 0.440961 0.0 
-0.191342 0.461940 0.0 
-0.145142 0.478470 0.0 
-0.097545 0.490393 0.0 
-0.049009 0.497592 0.0 
-0.500000 4.000000 0.0 
-1.000000 4.000000 0.0 
-1.500000 4.000000 0.0 
-2.000000 4.000000 0.0 
-2.500000 4.000000 0.0 
-3.000000 4.000000 0.0 
-3.500000 4.000000 0.0 
-3.772097 3.772097 0.0 
-3.544194 3.544194 0.0 
-3.316291 3.316291 0.0 
-3.088388 3.088388 0.0 
-2.860485 2.860485 0.0 
-2.632583 2.632583 0.0 
-2.404680 2.404680 0.0 
-2.176777 2.176777 0.0 
-1.948874 1.948874 0.0 
-1.720971 1.720971 0.0 
-1.493068 1.493068 0.0 
-1.265165 1.265165 0.0 
-1.037262 1.037262 0.0 
-0.809359 0.809359 0.0 
-0.581456 0.581456 0.0 
-0.386505 0.317197 0.0 
-0.415735 0.277785 0.0 
-0.440961 0.235698 0.0 
-0.461940 0.191342 0.0 
-0.478470 0.145142 0.0 
-0.490393 0.097545 0.0 
-0.497592 0.049009 0.0 
-0.718750 0.000000 0.0 
-0.937500 0.000000 0.0 
-1.156250 0.000000 0.0 
-1.375000 0.000000 0.0 
-1.593750 0.000000 0.0 
-1.812500 0.000000 0.0 
-2.031250 0.000000 0.0 
-2.250000 0.000000 0.0 
-2.468750 0.000000 0.0 
-2.687500 0.000000 0.0 
-2.906250 0.000000 0.0 
-3.125000 0.000000 0.0 
-3.343750 0.000000 0.0 
-3.562500 0.000000 0.0 
-3.781250 0.000000 0.0 
-4.000000 0.500000 0.0 
-4.000000 1.000000 0.0 
-4.000000 1.500000 0.0 
-4.000000 2.000000 0.0 
-4.000000 2.500000 0.0 
-4.000000 3.000000 0.0 
-4.000000 3.500000 0.0 
-0.386505 -0.317197 0.0 
-0.415735 -0.277785 0.0 
-0.440961 -0.235698 0.0 
-0.461940 -0.191342 0.0 
-0.478470 -0.145142 0.0 
-0.490393 -0.097545 0.0 
-0.497592 -0.049009 0.0 
-4.000000 -0.500000 0.0 
-4.000000 -1.000000 0.0 
-4.000000 -1.500000 0.0 
-4.000000 -2.000000 0.0 
-4.000000 -2.500000 0.0 
-4.000000 -3.000000 0.0 
-4.000000 -3.500000 0.0 
-3.772097 -3.772097 0.0 
-3.544194 -3.544194 0.0 
-3.316291 -3.316291 0.0 
-3.088388 -3.088388 0.0 
-2.860485 -2.860485 0.0 
-2.632583 -2.632583 0.0 
-2.404680 -2.404680 0.0 
-2.176777 -2.176777 0.0 
-1.948874 -1.948874 0.0 
-1.720971 -1.720971 0.0 
-1.493068 -1.493068 0.0 
-1.265165 -1.265165 0.0 
-1.037262 -1.037262 0.0 
-0.809359 -0.809359 0.0 
-0.581456 -0.581456 0.0 
-0.317197 -0.386505 0.0 
-0.277785 -0.415735 0.0 
-0.235698 -0.440961 0.0 
-0.191342 -0.461940 0.0 
-0.145142 -0.478470 0.0 
-0.097545 -0.490393 0.0 
-0.049009 -0.497592 0.0 
-0.000000 -0.718750 0.0 
-0.000000 -0.937500 0.0 
-0.000000 -1.156250 0.0 
-0.000000 -1.375000 0.0 
-0.000000 -1.593750 0.0 
-0.000000 -1.812500 0.0 
-0.000000 -2.031250 0.0 
-0.000000 -2.250000 0.0 
-0.000000 -2.468750 0.0 
-0.000000 -2.687500 0.0 
-0.000000 -2.906250 0.0 
-0.000000 -3.125000 0.0 
-0.000000 -3.343750 0.0 
-0.000000 -3.562500 0.0 
-0.000000 -3.781250 0.0 
-0.500000 -4.000000 0.0 
-1.000000 -4.000000 0.0 
-1.500000 -4.000000 0.0 
-2.000000 -4.000000 0.0 
-2.500000 -4.000000 0.0 
-3.000000 -4.000000 0.0 
-3.500000 -4.000000 0.0 
0.317197 -0.386505 0.0 
0.277785 -0.415735 0.0 
0.235698 -0.440961 0.0 
0.191342 -0.461940 0.0 
0.145142 -0.478470 0.0 
0.097545 -0.490393 0.0 
0.049009 -0.497592 0.0 
0.500000 -4.000000 0.0 
1.000000 -4.000000 0.0 
1.500000 -4.000000 0.0 
2.000000 -4.000000 0.0 
2.500000 -4.000000 0.0 
3.000000 -4.000000 0.0 
3.500000 -4.000000 0.0 
3.772097 -3.772097 0.0 
3.544194 -3.544194 0.0 
3.316291 -3.316291 0.0 
3.088388 -3.088388 0.0 
2.860485 -2.860485 0.0 
2.632583 -2.632583 0.0 
2.404680 -2.404680 0.0 
2.176777 -2.176777 0.0 
1.948874 -1.948874 0.0 
1.720971 -1.720971 0.0 
1.493068 -1.493068 0.0 
1.265165 -1.265165 0.0 
1.037262 -1.037262 0.0 
0.809359 -0.809359 0.0 
0.581456 -0.581456 0.0 
0.386505 -0.317197 0.0 
0.415735 -0.277785 0.0 
0.440961 -0.235698 0.0 
0.461940 -0.191342 0.0 
0.478470 -0.145142 0.0 
0.490393 -0.097545 0.0 
0.497592 -0.049009 0.0 
4.000000 -0.500000 0.0 
4.000000 -1.000000 0.0 
4.000000 -1.500000 0.0 
4.000000 -2.000000 0.0 
4.000000 -2.500000 0.0 
4.000000 -3.000000 0.0 
4.000000 -3.500000 0.0 
0.716493 0.077196 0.0 
0.709743 0.153949 0.0 
0.698566 0.229821 0.0 
0.683069 0.304383 0.0 
0.663401 0.377217 0.0 
0.639751 0.447924 0.0 
0.612349 0.516122 0.0 
0.935393 0.105382 0.0 
0.929094 0.210352 0.0 
0.918661 0.314500 0.0 
0.904197 0.417424 0.0 
0.885841 0.518736 0.0 
0.863768 0.618062 0.0 
0.838192 0.715047 0.0 
1.154294 0.133569 0.0 
1.148444 0.266755 0.0 
1.138757 0.399178 0.0 
1.125326 0.530465 0.0 
1.108281 0.660255 0.0 
1.087785 0.788200 0.0 
1.064035 0.913972 0.0 
1.373194 0.161756 0.0 
1.367794 0.323159 0.0 
1.358853 0.483857 0.0 
1.346455 0.643506 0.0 
1.330720 0.801774 0.0 
1.311801 0.958339 0.0 
1.289879 1.112897 0.0 
1.592095 0.189943 0.0 
1.587145 0.379562 0.0 
1.578948 0.568535 0.0 
1.567584 0.756547 0.0 
1.553160 0.943293 0.0 
1.535818 1.128477 0.0 
1.515722 1.311823 0.0 
1.810995 0.218130 0.0 
1.806495 0.435966 0.0 
1.799044 0.653214 0.0 
1.788712 0.869589 0.0 
1.775600 1.084811 0.0 
1.759834 1.298616 0.0 
1.741566 1.510748 0.0 
2.029896 0.246317 0.0 
2.025846 0.492369 0.0 
2.019139 0.737893 0.0 
2.009841 0.982630 0.0 
1.998040 1.226330 0.0 
1.983851 1.468754 0.0 
1.967409 1.709673 0.0 
2.248796 0.274504 0.0 
2.245196 0.548773 0.0 
2.239235 0.822571 0.0 
2.230970 1.095671 0.0 
2.220480 1.367849 0.0 
2.207867 1.638893 0.0 
2.193253 1.908598 0.0 
2.467697 0.302691 0.0 
2.464547 0.605176 0.0 
2.459331 0.907250 0.0 
2.452099 1.208712 0.0 
2.442920 1.509368 0.0 
2.431884 1.809031 0.0 
2.419096 2.107524 0.0 
2.686597 0.330878 0.0 
2.683897 0.661579 0.0 
2.679426 0.991928 0.0 
2.673227 1.321753 0.0 
2.665360 1.650887 0.0 
2.655901 1.979169 0.0 
2.644939 2.306449 0.0 
2.905498 0.359065 0.0 
2.903248 0.717983 0.0 
2.899522 1.076607 0.0 
2.894356 1.434794 0.0 
2.887800 1.792406 0.0 
2.879917 2.149308 0.0 
2.870783 2.505374 0.0 
3.124398 0.387252 0.0 
3.122598 0.774386 0.0 
3.119618 1.161286 0.0 
3.115485 1.547835 0.0 
3.110240 1.933925 0.0 
3.103934 2.319446 0.0 
3.096626 2.704299 0.0 
3.343299 0.415439 0.0 
3.341949 0.830790 0.0 
3.339713 1.245964 0.0 
3.336614 1.660877 0.0 
3.332680 2.075443 0.0 
3.327950 2.489585 0.0 
3.322470 2.903224 0.0 
3.562199 0.443626 0.0 
3.561299 0.887193 0.0 
3.559809 1.330643 0.0 
3.557742 1.773918 0.0 
3.555120 2.216962 0.0 
3.551967 2.659723 0.0 
3.548313 3.102150 0.0 
3.781100 0.471813 0.0 
3.780650 0.943597 0.0 
3.779904 1.415321 0.0 
3.778871 1.886959 0.0 
3.777560 2.358481 0.0 
3.775983 2.829862 0.0 
3.774157 3.301075 0.0 
3.301075 3.774157 0.0 
2.829862 3.775983 0.0 
2.358481 3.777560 0.0 
1.886959 3.778871 0.0 
1.415321 3.779904 0.0 
0.943597 3.780650 0.0 
0.471813 3.781100 0.0 
3.102150 3.548313 0.0 
2.659723 3.551967 0.0 
2.216962 3.555120 0.0 
1.773918 3.557742 0.0 
1.330643 3.559809 0.0 
0.887193 3.561299 0.0 
0.443626 3.562199 0.0 
2.903224 3.322470 0.0 
2.489585 3.327950 0.0 
2.075443 3.332680 0.0 
1.660877 3.336614 0.0 
1.245964 3.339713 0.0 
0.830790 3.341949 0.0 
0.415439 3.343299 0.0 
2.704299 3.096626 0.0 
2.319446 3.103934 0.0 
1.933925 3.110240 0.0 
1.547835 3.115485 0.0 
1.161286 3.119618 0.0 
0.774386 3.122598 0.0 
0.387252 3.124398 0.0 
2.505374 2.870783 0.0 
2.149308 2.879917 0.0 
1.792406 2.887800 0.0 
1.434794 2.894356 0.0 
1.076607 2.899522 0.0 
0.717983 2.903248 0.0 
0.359065 2.905498 0.0 
2.306449 2.644939 0.0 
1.979169 2.655901 0.0 
1.650887 2.665360 0.0 
1.321753 2.673227 0.0 
0.991928 2.679426 0.0 
0.661579 2.683897 0.0 
0.330878 2.686597 0.0 
2.107524 2.419096 0.0 
1.809031 2.431884 0.0 
1.509368 2.442920 0.0 
1.208712 2.452099 0.0 
0.907250 2.459331 0.0 
0.605176 2.464547 0.0 
0.302691 2.467697 0.0 
1.908598 2.193253 0.0 
1.638893 2.207867 0.0 
1.367849 2.220480 0.0 
1.095671 2.230970 0.0 
0.822571 2.239235 0.0 
0.548773 2.245196 0.0 
0.274504 2.248796 0.0 
1.709673 1.967409 0.0 
1.468754 1.983851 0.0 
1.226330 1.998040 0.0 
0.982630 2.009841 0.0 
0.737893 2.019139 0.0 
0.492369 2.025846 0.0 
[...]
<PointData  Vectors="sigma"> 
<DataArray  type="Float64"  Name="sigma" NumberOfComponents="3" format="ascii"> 
-815.97   -10798   728.964   
11324   293.704   1.28103e-11   
12871.6   -10.2879   24.4107   
15116.2   1009.11   -4675.63   
11910.8   -17.8887   -83.1405   
37008.6   6730.37   -243.255   
14399.7   958.215   4469.03   
12781.2   54.3131   -31.3784   
-815.97   -10798   -728.964   
11324   293.704   0   
15116.2   1009.11   -4675.63   
12871.6   -10.2879   24.4107   
37008.6   6730.37   -243.255   
11910.8   -17.8887   -83.1405   
14399.7   958.215   4469.03   
12781.2   54.3131   -31.3784   
3731.6   -600.472   772.009   
6380.97   654.578   586.236   
7997.09   741.043   434.515   
9027.32   648.187   327.121   
9712.13   548.232   251.71   
10183.8   470.254   197.671   
10518.1   414.479   157.817   
10760.1   376.023   127.476   
10937.9   350.076   103.592   
11069.2   332.82   84.1208   
11165.8   321.384   67.6445   
11235.5   313.625   53.1282   
11283.4   307.944   39.7678   
11312.8   303.15   26.885   
11325.4   298.366   13.8485   
11374.2   202.314   1.75491   
11543.9   87.6545   8.55383   
11780.3   -5.24961   16.242   
12025.7   -53.9419   21.1186   
12244.2   -61.5618   22.6804   
12428.9   -44.4422   22.9577   
12597.6   -0.749499   18.5984   
12762.9   -30.7805   23.1968   
12672.3   -44.4748   29.2109   
12595.9   -63.0524   38.0089   
12536.8   -91.101   44.7958   
12497.9   -130.591   45.2961   
12480.8   -182.445   35.9739   
12486.3   -247.637   13.9753   
12515.8   -328.268   -23.3209   
12572.1   -428.758   -79.287   
12661.2   -557.378   -159.955   
12794.1   -728.161   -277.922   
12989.3   -961.979   -462.505   
13257.6   -1279.47   -784.775   
13579.5   -1549.87   -1496.37   
12021.8   -150.336   -3530.36   
-195.562   -10149.2   -989.237   
1003.85   -8808.9   -1350.38   
2750.46   -6985.05   -1870.42   
4988.59   -4921.67   -2538.2   
7617.91   -2836.81   -3288.28   
10485.2   -880.092   -4034.84   
13380.3   897.955   -4713.89   
12077.7   32.164   -82.2245   
12186.1   50.0197   -80.9805   
12268.3   92.4095   -80.5533   
12333.2   153.742   -81.6285   
12387.7   231.97   -84.7153   
12438   327.68   -90.3178   
12490   443.9   -99.0671   
12551   586.471   -111.858   
12630.6   765.089   -130.027   
12744.8   995.344   -155.617   
12922.8   1302.47   -191.753   
13226.8   1728.1   -243.085   
13812   2342.2   -315.691   
15146.4   3261.2   -412.621   
19085.1   4657.56   -500.154   
18470.6   2251.94   -5381.88   
22085.3   3591.96   -5823.36   
25822   4818.28   -5950.11   
29462.1   5793.31   -5677.27   
32714.2   6447.96   -4934.08   
35246.1   6782.48   -3709.09   
36747.3   6852.19   -2084.92   
11912.5   -12.2475   -42.7222   
12063.2   -11.403   8.44346   
12292.5   -20.1144   44.3947   
12515.7   -32.7099   54.894   
12680.6   -42.1234   46.2188   
12777.9   -44.7469   30.6226   
12820.6   -44.038   14.3313   
15746.3   1143.37   4444.43   
19463.2   2356.78   4938.5   
23311.4   3559.67   5122.62   
27157.6   4610.23   4923.98   
30761.9   5440.92   4268.68   
33813.7   6046.62   3131.33   
35985.9   6463.22   1573.49   
12062.4   -14.2449   -90.0699   
12301   8.38414   -62.6333   
12539.1   45.4864   -19.1977   
12718.4   84.0388   20.159   
12825.4   113.355   45.5308   
12873   130.45   56.0696   
12909.4   115.75   57.6556   
12687.8   10.7211   -32.2636   
12609.4   -11.278   -37.2163   
12546.6   -30.0224   -42.3786   
12502.1   -52.7076   -43.8092   
12477.2   -83.1237   -38.0906   
12472.4   -123.671   -22.4084   
12487.7   -176.394   5.57312   
12523.6   -243.976   48.1234   
12582   -331.011   108.258   
12665.8   -445.97   191.194   
12778.9   -604.356   307.162   
12917.6   -836.422   476.998   
13038   -1187.17   750.487   
12769.9   -1794.11   1212.63   
9378.17   -1691.87   2403.59   
13380.3   897.955   4713.89   
10485.2   -880.092   4034.84   
7617.91   -2836.81   3288.28   
4988.59   -4921.67   2538.2   
2750.46   -6985.05   1870.42   
1003.85   -8808.9   1350.38   
-195.562   -10149.2   989.237   
2096.1   -1091.12   -788.746   
3883.32   -94.7144   -603.711   
6249.64   216.807   -443.472   
7864.59   299.368   -331.664   
8926.64   312.585   -254.106   
9639.77   307.039   -198.984   
10132.4   298.76   -158.56   
10481.5   292.43   -127.904   
10734   288.915   -103.84   
10919.2   287.821   -84.264   
11055.9   288.4   -67.7251   
11156.4   289.88   -53.1713   
11228.9   291.587   -39.7885   
11278.9   292.992   -26.893   
11310   293.739   -13.8502   
11374.2   202.314   -1.75491   
11543.9   87.6545   -8.55383   
11780.3   -5.24961   -16.242   
12025.7   -53.9419   -21.1186   
12244.2   -61.5618   -22.6804   
12428.9   -44.4422   -22.9577   
12597.6   -0.749499   -18.5984   
11471.9   -565.154   -3770.53   
8435.34   -2338.53   -2971.92   
5561.86   -4301.74   -2103.47   
3068.94   -6325.92   -1247.99   
1120.16   -8216.37   -500.068   
-187.404   -9734.87   72.1636   
-825.693   -10648.9   460.579   
11409.3   319.288   -3.51692   
11598.5   269.616   -7.82237   
11834.3   174.772   -7.99924   
12066   80.4618   -2.92889   
12268.4   18.8554   4.77363   
12441.5   -2.37631   11.7757   
12599.9   6.85488   16.2541   
12762.9   -30.7805   23.1968   
12672.3   -44.4748   29.2109   
12595.9   -63.0524   38.0089   
12536.8   -91.101   44.7958   
12497.9   -130.591   45.2961   
12480.8   -182.445   35.9739   
12486.3   -247.637   13.9753   
12515.8   -328.268   -23.3209   
12572.1   -428.758   -79.287   
12661.2   -557.378   -159.955   
12794.1   -728.161   -277.922   
12989.3   -961.979   -462.505   
13257.6   -1279.47   -784.775   
13579.5   -1549.87   -1496.37   
12021.8   -150.336   -3530.36   
18470.6   2251.94   -5381.88   
22085.3   3591.96   -5823.36   
25822   4818.28   -5950.11   
29462.1   5793.31   -5677.27   
32714.2   6447.96   -4934.08   
35246.1   6782.48   -3709.09   
36747.3   6852.19   -2084.92   
17995.8   1026.54   -462.995   
15217.2   3497.19   -414.272   
13983   2912.16   -318.613   
13371.4   2210.02   -244.968   
13033   1669.96   -192.874   
12828.5   1274.18   -156.29   
12695.2   980.474   -130.441   
12602   756.487   -112.119   
12531   580.475   -99.2334   
12471.1   438.236   -90.4234   
12414.3   320.584   -84.7803   
12353.6   221.737   -81.6655   
12282.1   138.419   -80.5708   
12191.9   69.4886   -80.9852   
12072.8   16.0441   -82.2227   
11912.5   -12.2475   -42.7222   
12063.2   -11.403   8.44346   
12292.5   -20.1144   44.3947   
12515.7   -32.7099   54.894   
12680.6   -42.1234   46.2188   
12777.9   -44.7469   30.6226   
12820.6   -44.038   14.3313   
15746.3   1143.37   4444.43   
19463.2   2356.78   4938.5   
23311.4   3559.67   5122.62   
27157.6   4610.23   4923.98   
30761.9   5440.92   4268.68   
33813.7   6046.62   3131.33   
35985.9   6463.22   1573.49   
12062.4   -14.2449   -90.0699   
12301   8.38414   -62.6333   
12539.1   45.4864   -19.1977   
12718.4   84.0388   20.159   
12825.4   113.355   45.5308   
12873   130.45   56.0696   
12909.4   115.75   57.6556   
12863.5   63.1679   -6.8121   
12765.5   34.7636   -4.85911   
12682.3   9.46946   -12.0011   
12618.5   -19.1516   -20.0972   
12579.6   -53.6037   -23.1742   
12569.2   -95.3234   -16.6066   
12589.6   -145.734   3.21231   
12643.7   -206.97   39.3426   
12737.1   -282.669   95.1902   
12882.1   -379.138   176.105   
13103   -506.96   292.473   
13448.8   -685.109   465.772   
14030.8   -932.708   750.797   
14952.3   -1340.21   1224.68   
17773.5   -1362.88   2675.85   
11471.9   -565.154   3770.53   
8435.34   -2338.53   2971.92   
5561.86   -4301.74   2103.47   
3068.94   -6325.92   1247.99   
1120.16   -8216.37   500.068   
-187.404   -9734.87   -72.1636   
-825.693   -10648.9   -460.579   
11409.3   319.288   3.51692   
11598.5   269.616   7.82237   
11834.3   174.772   7.99924   
12066   80.4618   2.92889   
12268.4   18.8554   -4.77363   
12441.5   -2.37631   -11.7757   
12599.9   6.85488   -16.2541   
4377.92   -783.487   -2133.42   
5764.82   -1045.2   -3232.51   
7656.99   -1344.32   -3961.68   
9787.64   -1636.94   -4282.03   
11917.9   -1885.18   -4214.85   
13884.6   -2066.98   -3822.1   
15647.4   -2195.44   -3175.48   
6873.05   325.378   -1744.41   
7956.99   -183.865   -2596.49   
9381.12   -753.132   -3036.97   
10876.8   -1266.95   -3063.12   
12220.4   -1643.31   -2745.29   
13245.2   -1836.34   -2185.51   
13786.3   -1806.42   -1491.78   
8365.71   425.458   -1321.24   
9186.99   -54.0112   -1932.46   
10236.3   -565.155   -2187.09   
11284.7   -988.814   -2107.65   
12160.5   -1250.14   -1786.24   
12778.2   -1324.15   -1346.76   
13184.9   -1247.94   -922.409   
9308.51   377.822   -1001.61   
9939.09   -24.1554   -1443.94   
10729.4   -435.285   -1595.88   
11496   -753.059   -1493.31   
12119.2   -926.731   -1229.05   
12563   -963.829   -905.775   
12834.4   -905.551   -585.588   
9931.8   323.073   -771.281   
10427.2   -5.41975   -1098.95   
11041   -331.085   -1193.43   
11627.6   -572.202   -1093.7   
12100.1   -698.053   -879.159   
12431.4   -720.965   -624.044   
12634.9   -669.5   -380.67   
10359.5   283.083   -604.065   
10758.3   14.0342   -852.055   
11249.6   -247.275   -911.729   
11716   -436.351   -819.534   
12089.6   -532.042   -640.764   
12351.7   -545.659   -435.738   
12514.2   -503.711   -244.384   
10661.7   257.515   -479.818   
10990.5   34.4268   -670.281   
11395   -179.348   -706.831   
11778.3   -331.563   -622.052   
12086   -406.459   -471.024   
12303.8   -415.41   -303.038   
12442.2   -380.557   -149.733   
10879.9   242.615   -384.833   
11157.3   54.76   -532.117   
11499.5   -123.446   -552.281   
11825   -248.692   -474.449   
12088.3   -309.041   -345.576   
12278.4   -314.889   -206.657   
12404.1   -285.074   -83.4001   
11039.8   234.889   -309.982   
11279.5   74.0991   -423.725   
11577   -77.1509   -431.888   
11862.4   -182.322   -360.647   
12096.9   -231.963   -250.457   
12271   -235.428   -135.878   
12392.7   -208.805   -38.1731   
11157.6   231.586   -249.103   
11370   91.5648   -335.999   
11636.5   -39.1425   -335.295   
11895.3   -129.118   -270.689   
12112.4   -170.609   -177.275   
12279.4   -171.991   -84.3384   
12403.8   -147.293   -9.54284   
11244.1   230.571   -197.894   
11437.9   106.299   -262.726   
11684.2   -8.785   -255.656   
11927.2   -87.1375   -198.234   
12135.5   -122.217   -120.815   
12301.9   -121.702   -47.9619   
12434.4   -98.3585   5.96523   
11306.6   230.149   -153.205   
11489.2   117.445   -199.49   
11724.8   14.0924   -188.34   
11960.6   -55.2698   -139.206   
12166.7   -85.073   -77.8   
12336.8   -82.7768   -23.9147   
12481   -60.8312   11.5707   
11350   228.912   -112.578   
11528.5   124.118   -143.022   
11762   29.3633   -130.191   
11997.8   -32.8589   -91.0682   
12206.2   -57.9208   -46.22   
12382.1   -53.7113   -10.1321   
12539.4   -33.4321   10.4093   
11377.6   225.618   -73.9343   
11559.5   125.372   -90.8047   
11799.2   36.7343   -79.1422   
12040.7   -19.4286   -52.4315   
12253.7   -39.5843   -24.9263   
12435.1   -32.5965   -5.22076   
12604.5   -13.5326   4.90835   
11391.4   219.063   -35.3203   
11585.4   120.16   -40.8333   
11839.5   35.8577   -34.0575   
12090.7   -14.4117   -22.8263   
12308.2   -28.9299   -13.3548   
12493.7   -16.6716   -8.07438   
12670.3   5.02748   -6.93889   
12732   -49.123   33.1149   
12681.3   -55.4813   59.6481   
12596.7   -52.466   92.6937   
12471.2   -37.4036   118.45   
12317.2   -12.1378   118.43   
12169.1   12.6143   78.1531   
12074.9   23.2142   1.89563   
12649.8   -63.2474   52.9045   
12610.4   -73.6064   91.2206   
12547.9   -69.6607   135.837   
12459.7   -45.6511   170.248   
12354.5   -3.31935   172.258   
12255   43.0687   124.572   
12192.5   71.8005   30.2396   
12586.3   -86.7731   71.9532   
12565.5   -99.6648   119.673   
12527.8   -91.4471   171.95   
12470   -54.0611   210.567   
12396.9   10.2024   211.595   
12325.4   82.6293   156.703   
12280.4   133.044   48.9463   
12544.9   -119.975   86.6197   
12545.2   -132.618   141.719   
12530.5   -115.798   199.866   
12495.4   -60.0353   241.601   
12441.9   30.9603   241.663   
12385.1   133.115   180.765   
12349.2   207.42   62.0786   
12526.2   -162.669   93.8182   
12547.5   -171.366   155.838   
12552.3   -141.146   220.314   
12532.7   -61.7511   266.416   
12489.8   60.8829   267.005   
12439.1   196.451   201.211   
12407.1   296.653   72.2526   
12530.1   -214.746   91.5439   
12571   -215.326   161.941   
12591.5   -166.574   235.193   
12581.8   -57.8508   288.432   
12542.8   101.976   291.61   
12492.4   275.408   221.449   
12460.8   404.078   81.2574   
12556.8   -276.817   78.7368   
12615.9   -264.791   160.911   
12649.1   -191.789   247.072   
12645.1   -46.9904   311.235   
12605.3   157.045   319.165   
12551   374.363   244.342   
12517.3   535.238   90.4104   
12608.2   -350.866   54.7743   
12685.2   -321.172   154.106   
12729.5   -216.893   258.876   
12728.1   -27.1989   338.587   
12683.8   230.635   353.335   
12622.1   500.357   272.566   
12584.6   698.902   100.744   
12689.1   -440.951   18.6399   
12785.5   -387.118   142.77   
12840.9   -241.899   273.675   
12840.5   5.17408   374.483   
12788.6   330.479   397.988   
12716.7   664.809   308.793   
12673.5   908.765   113.028   
12809   -553.997   -32.5387   
12929.6   -466.361   127.233   
12998.2   -265.539   294.182   
12998.4   57.2318   423.034   
12936.8   470.328   457.107   
12851.9   886.424   355.43   
12801.6   1186.17   127.465   
12985.5   -700.227   -106.276   
13139.6   -561.901   104.489   
13227.2   -283.959   321.187   
13230.4   144.944   487.397   
13158   675.465   533.095   
13058.2   1195.76   412.882   
13000   1563.7   142.485   
13246.7   -889.145   -223.162   
13453.8   -678.873   60.4013   
13576.4   -276.019   349.43   
13588.4   306.652   562.504   
13508   991.602   618.431   
13395.7   1639.54   472.411   
13331.5   2086   150.526   
13636.5   -1139.11   -451.033   
13951   -761.258   -42.4574   
14129.7   -159.002   336.93   
14168.2   624.262   596.571   
14099.9   1485.79   658.336   
13994.3   2264   486.901   
13936.1   2780.64   122.281   
14221.8   -1133.51   -936.279   
14662.6   -532.294   -428.865   
14954.6   253.415   -3.4215   
15111.9   1171.6   279.66   
15162.7   2109.13   364.102   
15159.7   2906.5   233.725   
15164.1   3402.72   -62.5141   
12857.3   -76.536   -3435.46   
13886.9   79.3915   -3203.05   
14960.7   313.864   -2869.78   
15979.2   596.503   -2466.16   
16858   871.846   -2016.29   
17522.5   1069.89   -1534.13   
17913.8   1129.37   -1019.82   
18971.9   4201.36   -787.337   
18666.6   3263.58   -937.034   
18197.7   2021.92   -908.515   
17604.8   673.888   -697.308   
16931.4   -608.542   -329.19   
16224.2   -1718.77   150.918   
15545.9   -2659.93   699.998   
15261.3   2893.29   -909.398   
15380.5   2112.31   -1194.21   
15439.6   1122.7   -1208.74   
15386.4   134.364   -971.709   
15197.3   -690.314   -551.51   
14872.8   -1244.09   -30.5107   
14408   -1422.23   516.473   
13965.1   2061.78   -758.951   
14157.8   1460.72   -1001.15   
14303.4   722.674   -996.174   
14334   26.4241   -778.506   
14220.2   -504.885   -430.208   
13969   -821.083   -47.7254   
13628.4   -974.8   273.77   
13369.5   1512.65   -607.01   
13551.6   1050.33   -798.686   
13689.2   495.743   -785.485   
13721.3   -8.3691   -607.987   
13630.1   -377.4   -345.302   
13440.5   -595.499   -76.3653   
13197.1   -679.121   157.314   
13044.8   1133.69   -489.375   
13199.5   772.97   -643.394   
13313.2   347.945   -631.203   
13336.9   -28.7812   -492.523   
13263.3   -296.71   -293.95   
13116   -445.157   -92.2234   
12926.5   -494.39   76.9263   
12846.6   860.502   -403.054   
12974.7   574.814   -530.98   
13066.4   243.548   -523.229   
13083.3   -43.4156   -415.239   
13022.1   -240.319   -261.361   
12902.5   -342.356   -107.623   
12752.4   -367.812   19.0155   
12715.3   655.575   -340.165   
12821.2   426.906   -449.888   
12895.8   166.351   -446.963   
12908.1   -53.5504   -362.096   
12856.6   -198.06   -240.821   
12759   -266.055   -120.677   
12638.2   -274.597   -23.0027   
12621.7   496.488   -293.941   
12710.5   312.815   -390.38   
12772.8   108.061   -391.41   
12783.1   -59.173   -323.697   
12741.1   -162.869   -225.889   
12662.1   -204.894   -129.345   
12565.4   -201.25   -51.6203   
12549.9   369.557   -259.287   
12626.2   222.943   -345.153   
12680.8   64.285   -348.575   
12692.3   -59.6879   -292.921   
12660.9   -130.452   -211.61   
12599.8   -152.428   -131.56   
12525   -140.664   -67.7841   
12490   266.413   -232.311   
12558.3   151.707   -308.517   
12610.1   32.7558   -312.156   
12626.8   -54.5087   -264.132   
12608.4   -98.3793   -194.048   
12565.7   -105.43   -125.668   
12512.1   -89.4776   -72.2211   
12434.9   182.152   -209.734   
12500.6   96.0357   -275.515   
12555.3   12.3376   -276.68   
12582.2   -43.4094   -232.597   
12579.9   -65.8218   -170.194   
12557.2   -62.9577   -110.865   
12524.6   -46.662   -66.2708   
12379.6   114.389   -188.326   
12449   54.5087   -241.184   
12514   2.31423   -236.911   
12557   -26.9433   -194.294   
12574.7   -33.4875   -138.191   
12573.2   -25.7564   -87.6423   
12560.8   -12.5483   -52.395   
12319.5   62.8624   -164.284   
12401.7   26.7521   -199.842   
12486.3   1.67017   -187.514   
12552.5   -6.94546   -146.109   
12593.6   -3.56354   -97.8349   
12613.2   4.37841   -58.1774   
12618.2   11.9441   -34.2751   
12250.9   29.4341   -132.394   
12359.1   12.8242   -144.317   
12475.3   8.17234   -123.041   
12571.9   12.9194   -86.4861   
12637.9   20.5547   -51.3006   
12675.9   25.6287   -26.4427   
12693.1   25.8104   -16.0976   
12170.8   18.4508   -84.7212   
12324.3   12.2575   -65.098   
12487.1   17.0595   -38.4524   
12620   26.8548   -16.6271   
12707.9   34.6993   -3.68682   
12757.9   38.2845   1.3342   
12780.4   28.3371   1.55271   
11361.1   209.96   38.2778   
11520.4   100.645   42.0086   
11740.6   6.22488   27.8011   
11972.9   -49.6437   6.30612   
12185.7   -65.4527   -12.8274   
12369   -53.7309   -25.4155   
12535.2   -35.0325   -32.5743   
11333.3   212.308   76.7984   
11489.9   104.468   93.2811   
11702.8   7.83433   76.8639   
11926.7   -53.4754   42.3589   
12133.3   -75.3638   6.38243   
12313.2   -68.604   -20.8189   
12474.4   -51.777   -35.9795   
11288.4   210.396   115.686   
11449.2   100.273   146.901   
11662.9   -0.386513   131.439   
11884.5   -66.7295   86.8047   
12087.1   -93.2863   35.0307   
12262.7   -88.8885   -7.97282   
12417.2   -69.1151   -34.6483   
11223   205.017   156.787   
11394.3   88.8636   204.889   
11616.9   -18.3793   192.855   
11843.3   -90.4507   140.216   
12046.3   -120.966   73.5526   
12218.7   -117.683   13.6775   
12366   -94.3455   -28.0351   
11131.9   196.829   202.131   
11319.9   70.721   269.778   
11560   -46.3084   263.306   
11799.5   -125.686   204.107   
12009   -160.233   123.016   
12181.4   -157.592   45.323   
12323   -131.065   -14.1605   
11007.2   186.366   254.155   
11218.9   45.9537   344.86   
11486   -84.7821   346.054   
11748.1   -173.86   281.14   
11972.3   -213.156   185.445   
12150.4   -210.936   88.8087   
12289.7   -181.359   9.38791   
10837.2   173.99   316.009   
11081.1   14.1633   434.582   
11386.2   -135.16   445.841   
11682.8   -237.241   375.538   
11931.9   -282.564   264.199   
12124   -280.509   146.834   
12266.8   -247.202   45.2714   
10604.3   159.73   391.998   
10890.8   -25.8369   545.194   
11248   -200.041   569.622   
11593.9   -319.629   493.831   
11881.7   -372.925   364.658   
12098.8   -370.645   223.491   
12253.5   -331.834   96.6659   
10280.6   142.915   488.244   
10623.2   -76.5941   685.769   
11051.3   -284.082   727.848   
11466.4   -427.527   646.172   
11811.3   -491.732   495.506   
12069   -488.796   325.322   
12247.9   -441.482   168.069   
9821.29   121.309   613.65   
10238   -143.067   869.8   