<VTKFile type="UnstructuredGrid"  version="0.1"   > 
<UnstructuredGrid> 
<Piece  NumberOfPoints="  3615" NumberOfCells=" 7016"> 
<Points> 
<DataArray  type="Float64"  NumberOfComponents="3"  format="ascii" > 
0.000000 0.000000 0.0 
0.000000 1.000000 0.0 
-1.000000 0.000000 0.0 
-4.000000 0.000000 0.0 
-4.000000 4.000000 0.0 
0.000000 4.000000 0.0 
-0.041325 0.999146 0.0 
-0.082579 0.996584 0.0 
-0.123693 0.992321 0.0 
-0.164595 0.986361 0.0 
-0.205215 0.978717 0.0 
-0.245485 0.969400 0.0 
-0.285336 0.958427 0.0 
-0.324699 0.945817 0.0 
-0.363508 0.931591 0.0 
-0.401695 0.915773 0.0 
-0.439197 0.898391 0.0 
-0.475947 0.879474 0.0 
-0.511885 0.859054 0.0 
-0.546948 0.837166 0.0 
-0.581077 0.813849 0.0 
-0.614213 0.789141 0.0 
-0.646299 0.763084 0.0 
-0.677282 0.735724 0.0 
-0.707107 0.707107 0.0 
-0.735724 0.677282 0.0 
-0.763084 0.646299 0.0 
-0.789141 0.614213 0.0 
-0.813849 0.581077 0.0 
-0.837166 0.546948 0.0 
-0.859054 0.511885 0.0 
-0.879474 0.475947 0.0 
-0.898391 0.439197 0.0 
-0.915773 0.401695 0.0 
-0.931591 0.363508 0.0 
-0.945817 0.324699 0.0 
-0.958427 0.285336 0.0 
-0.969400 0.245485 0.0 
-0.978717 0.205215 0.0 
-0.986361 0.164595 0.0 
-0.992321 0.123693 0.0 
-0.996584 0.082579 0.0 
-0.999146 0.041325 0.0 
-1.042529 0.000000 0.0 
-1.085058 0.000000 0.0 
-1.129396 0.000000 0.0 
-1.173734 0.000000 0.0 
-1.219957 0.000000 0.0 
-1.266181 0.000000 0.0 
-1.314370 0.000000 0.0 
-1.362559 0.000000 0.0 
-1.412798 0.000000 0.0 
-1.463037 0.000000 0.0 
-1.515412 0.000000 0.0 
-1.567788 0.000000 0.0 
-1.622390 0.000000 0.0 
-1.676993 0.000000 0.0 
-1.733918 0.000000 0.0 
-1.790843 0.000000 0.0 
-1.850189 0.000000 0.0 
-1.909535 0.000000 0.0 
-1.971405 0.000000 0.0 
-2.033275 0.000000 0.0 
-2.097776 0.000000 0.0 
-2.162278 0.000000 0.0 
-2.229522 0.000000 0.0 
-2.296766 0.000000 0.0 
-2.366871 0.000000 0.0 
-2.436975 0.000000 0.0 
-2.510061 0.000000 0.0 
-2.583146 0.000000 0.0 
-2.659340 0.000000 0.0 
-2.735534 0.000000 0.0 
-2.814969 0.000000 0.0 
-2.894403 0.000000 0.0 
-2.977216 0.000000 0.0 
-3.060029 0.000000 0.0 
-3.146363 0.000000 0.0 
-3.232698 0.000000 0.0 
-3.322704 0.000000 0.0 
-3.412711 0.000000 0.0 
-3.506545 0.000000 0.0 
-3.600379 0.000000 0.0 
-3.698204 0.000000 0.0 
-3.796029 0.000000 0.0 
-3.898015 0.000000 0.0 
-4.000000 0.105263 0.0 
-4.000000 0.210526 0.0 
-4.000000 0.315789 0.0 
-4.000000 0.421053 0.0 
-4.000000 0.526316 0.0 
-4.000000 0.631579 0.0 
-4.000000 0.736842 0.0 
-4.000000 0.842105 0.0 
-4.000000 0.947368 0.0 
-4.000000 1.052632 0.0 
-4.000000 1.157895 0.0 
-4.000000 1.263158 0.0 
-4.000000 1.368421 0.0 
-4.000000 1.473684 0.0 
-4.000000 1.578947 0.0 
-4.000000 1.684211 0.0 
-4.000000 1.789474 0.0 
-4.000000 1.894737 0.0 
-4.000000 2.000000 0.0 
-4.000000 2.105263 0.0 
-4.000000 2.210526 0.0 
-4.000000 2.315789 0.0 
-4.000000 2.421053 0.0 
-4.000000 2.526316 0.0 
-4.000000 2.631579 0.0 
-4.000000 2.736842 0.0 
-4.000000 2.842105 0.0 
-4.000000 2.947368 0.0 
-4.000000 3.052632 0.0 
-4.000000 3.157895 0.0 
-4.000000 3.263158 0.0 
-4.000000 3.368421 0.0 
-4.000000 3.473684 0.0 
-4.000000 3.578947 0.0 
-4.000000 3.684211 0.0 
-4.000000 3.789474 0.0 
-4.000000 3.894737 0.0 
-3.894737 4.000000 0.0 
-3.789474 4.000000 0.0 
-3.684211 4.000000 0.0 
-3.578947 4.000000 0.0 
-3.473684 4.000000 0.0 
-3.368421 4.000000 0.0 
-3.263158 4.000000 0.0 
-3.157895 4.000000 0.0 
-3.052632 4.000000 0.0 
-2.947368 4.000000 0.0 
-2.842105 4.000000 0.0 
-2.736842 4.000000 0.0 
-2.631579 4.000000 0.0 
-2.526316 4.000000 0.0 
-2.421053 4.000000 0.0 
-2.315789 4.000000 0.0 
-2.210526 4.000000 0.0 
-2.105263 4.000000 0.0 
-2.000000 4.000000 0.0 
-1.894737 4.000000 0.0 
-1.789474 4.000000 0.0 
-1.684211 4.000000 0.0 
-1.578947 4.000000 0.0 
-1.473684 4.000000 0.0 
-1.368421 4.000000 0.0 
-1.263158 4.000000 0.0 
-1.157895 4.000000 0.0 
-1.052632 4.000000 0.0 
-0.947368 4.000000 0.0 
-0.842105 4.000000 0.0 
-0.736842 4.000000 0.0 
-0.631579 4.000000 0.0 
-0.526316 4.000000 0.0 
-0.421053 4.000000 0.0 
-0.315789 4.000000 0.0 
-0.210526 4.000000 0.0 
-0.105263 4.000000 0.0 
0.000000 3.898015 0.0 
0.000000 3.796029 0.0 
0.000000 3.698204 0.0 
0.000000 3.600379 0.0 
0.000000 3.506545 0.0 
0.000000 3.412711 0.0 
0.000000 3.322704 0.0 
0.000000 3.232698 0.0 
0.000000 3.146363 0.0 
0.000000 3.060029 0.0 
0.000000 2.977216 0.0 
0.000000 2.894403 0.0 
0.000000 2.814969 0.0 
0.000000 2.735534 0.0 
0.000000 2.659340 0.0 
0.000000 2.583146 0.0 
0.000000 2.510061 0.0 
0.000000 2.436975 0.0 
0.000000 2.366871 0.0 
0.000000 2.296766 0.0 
0.000000 2.229522 0.0 
0.000000 2.162278 0.0 
0.000000 2.097776 0.0 
0.000000 2.033275 0.0 
0.000000 1.971405 0.0 
0.000000 1.909535 0.0 
0.000000 1.850189 0.0 
0.000000 1.790843 0.0 
0.000000 1.733918 0.0 
0.000000 1.676993 0.0 
0.000000 1.622390 0.0 
0.000000 1.567788 0.0 
0.000000 1.515412 0.0 
0.000000 1.463037 0.0 
0.000000 1.412798 0.0 
0.000000 1.362559 0.0 
0.000000 1.314370 0.0 
0.000000 1.266181 0.0 
0.000000 1.219957 0.0 
0.000000 1.173734 0.0 
0.000000 1.129396 0.0 
0.000000 1.085058 0.0 
0.000000 1.042529 0.0 
0.000000 0.041667 0.0 
0.000000 0.083333 0.0 
0.000000 0.125000 0.0 
0.000000 0.166667 0.0 
0.000000 0.208333 0.0 
0.000000 0.250000 0.0 
0.000000 0.291667 0.0 
0.000000 0.333333 0.0 
0.000000 0.375000 0.0 
0.000000 0.416667 0.0 
0.000000 0.458333 0.0 
0.000000 0.500000 0.0 
0.000000 0.541667 0.0 
0.000000 0.583333 0.0 
0.000000 0.625000 0.0 
0.000000 0.666667 0.0 
0.000000 0.708333 0.0 
0.000000 0.750000 0.0 
0.000000 0.791667 0.0 
0.000000 0.833333 0.0 
0.000000 0.875000 0.0 
0.000000 0.916667 0.0 
0.000000 0.958333 0.0 
-0.041667 0.000000 0.0 
-0.083333 0.000000 0.0 
-0.125000 0.000000 0.0 
-0.166667 0.000000 0.0 
-0.208333 0.000000 0.0 
-0.250000 0.000000 0.0 
-0.291667 0.000000 0.0 
-0.333333 0.000000 0.0 
-0.375000 0.000000 0.0 
-0.416667 0.000000 0.0 
-0.458333 0.000000 0.0 
-0.500000 0.000000 0.0 
-0.541667 0.000000 0.0 
-0.583333 0.000000 0.0 
-0.625000 0.000000 0.0 
-0.666667 0.000000 0.0 
-0.708333 0.000000 0.0 
-0.750000 0.000000 0.0 
-0.791667 0.000000 0.0 
-0.833333 0.000000 0.0 
-0.875000 0.000000 0.0 
-0.916667 0.000000 0.0 
-0.958333 0.000000 0.0 
-2.022894 2.399791 0.0 
-2.765351 1.724056 0.0 
-2.236965 1.138746 0.0 
-1.070040 2.138852 0.0 
-1.451495 3.192564 0.0 
-3.444158 1.500152 0.0 
-0.372202 1.817223 0.0 
-1.813938 0.411418 0.0 
-3.096388 0.868766 0.0 
-2.988710 2.490044 0.0 
-2.914824 3.204258 0.0 
-1.356545 0.307072 0.0 
-0.311979 1.350358 0.0 
-3.288632 3.265090 0.0 
-1.042492 0.324336 0.0 
-0.333775 1.029019 0.0 
-3.635560 0.347169 0.0 
-0.167729 1.123524 0.0 
-1.126109 0.164472 0.0 
-1.070197 0.080772 0.0 
-0.081682 1.069200 0.0 
-1.032131 1.285701 0.0 
-1.418781 0.766423 0.0 
-1.834481 0.671364 0.0 
-0.674472 1.745060 0.0 
-2.076996 0.651380 0.0 
-0.585714 2.056494 0.0 
-2.470299 2.906586 0.0 
-2.001385 3.520874 0.0 
-2.522261 2.359130 0.0 
-2.078516 1.632286 0.0 
-0.454789 2.409623 0.0 
-2.367018 0.444143 0.0 
-0.563969 1.066183 0.0 
-1.011227 0.515809 0.0 
-2.830270 1.295762 0.0 
-2.634402 0.787180 0.0 
-0.423560 1.202769 0.0 
-1.165892 0.421969 0.0 
-2.855813 2.102123 0.0 
-2.646071 3.637005 0.0 
-3.069587 1.597824 0.0 
-2.931379 0.396541 0.0 
-3.108193 3.619224 0.0 
-3.354119 1.130434 0.0 
-1.584565 0.344387 0.0 
-0.353897 1.614713 0.0 
-2.431456 1.591312 0.0 
-0.257251 1.171864 0.0 
-1.166121 0.240669 0.0 
-1.733361 3.769729 0.0 
-0.320144 3.398462 0.0 
-3.405585 0.340631 0.0 
-1.501434 0.113158 0.0 
-0.148599 1.502709 0.0 
-3.312785 3.630711 0.0 
-3.571097 3.176724 0.0 
-3.656972 0.659931 0.0 
-1.343839 3.813720 0.0 
-1.083930 0.244357 0.0 
-3.734196 1.629263 0.0 
-0.223562 2.045587 0.0 
-2.050150 0.221929 0.0 
-3.195952 2.916196 0.0 
-3.863554 3.285892 0.0 
-0.172399 1.221017 0.0 
-1.218954 0.176994 0.0 
-1.565116 2.416664 0.0 
-3.267859 0.639903 0.0 
-3.835417 3.455800 0.0 
-0.161912 3.500860 0.0 
-3.826931 0.564731 0.0 
-1.761553 0.128328 0.0 
-0.112249 1.756363 0.0 
-3.656384 3.783778 0.0 
-0.327259 3.810720 0.0 
-1.174740 0.072901 0.0 
-0.072271 1.174056 0.0 
-3.413178 3.443343 0.0 
-3.486975 0.535980 0.0 
-1.455412 1.245403 0.0 
-1.309139 1.609545 0.0 
-0.786305 1.513377 0.0 
-1.029671 0.711258 0.0 
-0.736441 0.985941 0.0 
-1.889282 1.426486 0.0 
-1.152735 0.895795 0.0 
-0.700346 2.278057 0.0 
-2.359272 0.713967 0.0 
-0.744182 1.140814 0.0 
-1.313731 1.948472 0.0 
-0.901216 2.519334 0.0 
-1.872791 2.118986 0.0 
-1.173306 0.643108 0.0 
-1.175358 2.525851 0.0 
-0.795823 1.983949 0.0 
-1.463246 0.564945 0.0 
-0.589836 1.252858 0.0 
-1.557957 2.149279 0.0 
-0.756925 1.337878 0.0 
-1.351623 0.544717 0.0 
-0.640290 2.583087 0.0 
-2.444989 0.960115 0.0 
-1.621916 0.729970 0.0 
-2.536705 1.209258 0.0 
-0.723472 2.114328 0.0 
-1.189001 0.523328 0.0 
-2.213137 2.642981 0.0 
-2.599782 3.258265 0.0 
-3.243238 2.360090 0.0 
-2.094042 2.930192 0.0 
-3.079297 0.627834 0.0 
-2.243882 3.230926 0.0 
-2.162227 2.161305 0.0 
-2.563313 0.533176 0.0 
-1.350699 2.277347 0.0 
-0.383949 2.677316 0.0 
-2.854503 3.000362 0.0 
-1.882296 3.168867 0.0 
-0.433635 1.305812 0.0 
-2.647082 0.408946 0.0 
-2.775416 2.792223 0.0 
-1.909533 1.678015 0.0 
-0.602920 2.896082 0.0 
-0.576781 3.040677 0.0 
-1.708075 0.500954 0.0 
-3.152224 2.193748 0.0 
-3.145354 0.496807 0.0 
-1.768941 3.368498 0.0 
-0.454934 3.123672 0.0 
-1.480112 2.558267 0.0 
-1.144886 3.042001 0.0 
-1.189545 3.531909 0.0 
-2.368712 1.432659 0.0 
-0.560024 1.540399 0.0 
-2.193159 0.306283 0.0 
-0.442133 1.517667 0.0 
-2.725632 3.144526 0.0 
-1.906073 2.666267 0.0 
-2.058017 0.390801 0.0 
-2.707126 1.019158 0.0 
-3.008821 1.038239 0.0 
-0.308689 2.170321 0.0 
-2.458093 2.157477 0.0 
-3.136290 1.398467 0.0 
-0.406737 1.417037 0.0 
-1.027895 3.648290 0.0 
-3.612668 1.791886 0.0 
-1.596754 3.060066 0.0 
-2.439426 0.212796 0.0 
-2.706588 2.283084 0.0 
-2.206534 0.458714 0.0 
-2.562813 1.460926 0.0 
-0.953290 3.016522 0.0 
-0.465544 2.137448 0.0 
-2.961819 1.785022 0.0 
-3.194828 0.329116 0.0 
-2.634842 2.061729 0.0 
-0.307221 3.219125 0.0 
-1.681834 3.577755 0.0 
-0.201079 2.472069 0.0 
[...]
<PointData  Vectors="sigma"> 
<DataArray  type="Float64"  Name="sigma" NumberOfComponents="3" format="ascii"> 
0.0310117   0.00313945   -2.32508e-07   
0.0306926   0.00240289   -0.00029816   
0.0310613   0.00352781   7.53464e-05   
7.13985   0.959287   0.00234445   
12.0573   -0.000348471   -0.0202791   
9.25399   0.00336192   -0.0380502   
0.0309934   0.00295734   -2.2769e-05   
0.0311875   0.00299862   4.77468e-05   
0.0311875   0.00299862   4.77468e-05   
0.0311896   0.00295151   -7.51713e-05   
0.0309304   0.00284858   -5.43892e-05   
0.0310836   0.0026553   -0.000112203   
0.0310903   0.00302914   -0.000162803   
0.0310849   0.00309039   -0.000139413   
0.0310743   0.00303991   -0.000101225   
0.031083   0.00303524   -0.000107654   
0.0311328   0.00301083   -0.000108991   
0.0311106   0.00296594   -0.000116179   
0.0311755   0.00299799   -0.000232367   
0.0309804   0.00306156   -0.000275706   
0.0309753   0.00306295   -0.000236284   
0.0310123   0.00308583   -0.000208201   
0.0309882   0.00312027   -0.000255215   
0.0309882   0.00312027   -0.000255215   
0.0309326   0.0031632   -0.000217565   
0.0309326   0.0031632   -0.000217565   
0.0309736   0.00324641   -0.000250337   
0.0309736   0.00324641   -0.000250337   
0.0308976   0.003327   -0.000208924   
0.0308856   0.00329712   -0.000204816   
0.0308586   0.00331028   -0.000190098   
0.0308461   0.00329248   -0.000178157   
0.0307886   0.00325137   -0.000246153   
0.0307886   0.00325137   -0.000246153   
0.0308665   0.00354618   -0.000205141   
0.0308152   0.00344317   -0.000144612   
0.0309319   0.00358531   -4.93892e-05   
0.0309319   0.00358531   -4.93892e-05   
0.0307468   0.00330001   -7.05736e-05   
0.0307468   0.00330001   -7.05736e-05   
0.030776   0.00344664   -0.000117142   
0.0307642   0.00356045   -6.14335e-05   
0.0308069   0.00361692   0.000106071   
-0.192892   -7.95539   0.213656   
-0.635227   -6.48955   -0.171039   
-0.151055   -4.12876   0.000914516   
-0.147601   -4.12728   0.000952642   
-0.147601   -4.12728   0.000952642   
0.319639   -2.49896   0.206137   
0.624064   -1.91454   0.222879   
0.780692   -1.5998   0.10511   
0.951953   -1.43864   0.226806   
1.63108   -0.72154   0.220161   
1.96978   -0.452759   0.21227   
1.96978   -0.452759   0.21227   
2.63009   -0.0556013   0.192347   
2.63009   -0.0556013   0.192347   
2.94678   0.0886613   0.179066   
3.23806   0.217694   0.144631   
3.51583   0.29562   0.119959   
3.97546   0.454821   0.0935468   
4.33959   0.565394   0.103069   
4.48491   0.612626   0.0850349   
4.81615   0.672102   0.0913089   
4.81615   0.672102   0.0913089   
5.02759   0.687847   0.0955528   
5.35474   0.763429   0.0881823   
5.58634   0.778649   0.0733704   
5.6966   0.803684   0.0689364   
5.75685   0.802239   0.0686703   
6.00579   0.840635   0.0615802   
6.06282   0.841552   0.0613371   
6.29376   0.878245   0.0588439   
6.43993   0.879849   0.045561   
6.43993   0.879849   0.045561   
6.64234   0.90064   0.0363329   
6.64234   0.90064   0.0363329   
6.733   0.914885   0.0353696   
6.85522   0.929952   0.0323676   
6.94952   0.938242   0.0265276   
6.99089   0.947211   0.0249235   
7.04867   0.949058   0.017659   
7.04867   0.949058   0.017659   
7.11242   0.955353   0.00866941   
7.13152   0.961093   0.00640315   
7.13985   0.959287   0.00234445   
7.14694   0.960162   0.000757581   
7.1927   0.948559   0.013773   
7.25526   0.900278   0.00487552   
7.32798   0.910916   0.0260999   
7.39299   0.867981   0.00543436   
7.59488   0.767431   0.00873825   
7.59488   0.767431   0.00873825   
7.78465   0.671171   0.0472296   
7.85485   0.643952   0.0074004   
8.18629   0.515044   0.00292503   
8.3774   0.446388   0.0019057   
8.41481   0.362955   0.0642726   
8.57566   0.378885   0.00336372   
8.7601   0.319405   0.00502538   
9.04089   0.203004   0.00813263   
9.13826   0.184184   0.0422614   
9.19188   0.144195   0.0033895   
9.48521   0.0925165   0.0440773   
9.71492   0.0204056   -0.0111177   
9.78376   -0.00766025   0.0399889   
10.032   -0.0325523   -0.0104929   
10.032   -0.0325523   -0.0104929   
10.1662   -0.0500097   -0.0106699   
10.4247   -0.0665675   -0.0186063   
10.4247   -0.0665675   -0.0186063   
10.6348   -0.0770414   0.0205492   
10.7062   -0.0716042   -0.0248693   
10.884   -0.0751619   0.0149563   
11.1007   -0.0526851   -0.0191992   
11.1007   -0.0526851   -0.0191992   
11.3222   -0.0321747   -0.013303   
11.377   -0.0323744   0.0122346   
11.5537   -0.021551   -0.016421   
11.6343   -0.00836937   0.0140376   
11.8089   -0.0151162   -0.0160956   
11.8998   0.007552   0.0154398   
12.0573   -0.000348471   -0.0202791   
12.1906   0.0162429   0.0077336   
12.0462   -0.0122559   -0.00651122   
12.1637   0.0126172   0.00363469   
12.1589   0.0126037   0.00258061   
12.1589   0.0126037   0.00258061   
12.0021   -0.0130643   -0.0155433   
12.1114   0.0100542   -0.00392063   
12.1114   0.0100542   -0.00392063   
12.0839   0.0100319   -0.00661115   
12.0155   0.00877874   -0.0121826   
12.0155   0.00877874   -0.0121826   
11.831   -0.00901365   -0.0273206   
11.8626   -0.00254305   -0.0280651   
11.8626   -0.00254305   -0.0280651   
11.7868   -0.000350212   -0.0317202   
11.5822   -0.0057599   -0.0404538   
11.5168   -0.0118044   -0.0553932   
11.3063   -0.0420821   -0.0980871   
11.3336   0.0303783   -0.0327841   
11.3336   0.0303783   -0.0327841   
11.1686   -0.0417303   -0.0528646   
11.0966   0.0397826   -0.099679   
10.7572   0.0114518   -0.0739316   
10.7572   0.0114518   -0.0739316   
10.5977   0.00933139   -0.0730536   
10.378   -0.00722262   -0.0703044   
10.2618   0.00852813   -0.0704373   
10.092   -0.00714218   -0.0590895   
9.93597   0.00879691   -0.067307   
9.80677   -0.00919351   -0.0471642   
9.63488   0.0137876   -0.0636883   
9.49655   0.0146428   -0.0578905   
9.25373   0.00510547   -0.0394706   
9.25373   0.00510547   -0.0394706   
9.1767   0.00197006   -0.0277491   
9.2925   0.00962917   -0.0252062   
9.02656   -0.0152559   0.010952   
9.25399   0.00336192   -0.0380502   
9.5293   0.0297989   0.0130162   
9.83152   0.115535   -0.0412799   
9.83152   0.115535   -0.0412799   
9.99218   0.172892   -0.045285   
10.1905   0.274987   -0.0184253   
10.3653   0.401029   -0.0500059   
10.4143   0.445325   -0.0266553   
10.5611   0.582051   -0.0492583   
10.6086   0.632295   -0.0279697   
10.7319   0.78222   -0.0507263   
10.7613   0.79887   -0.0395503   
10.8093   0.885764   -0.0582801   
10.9426   1.04924   -0.0470589   
11.0762   1.21635   -0.0588314   
11.0762   1.21635   -0.0588314   
11.2556   1.46311   -0.0536044   
11.3013   1.50759   -0.0343843   
11.36   1.59094   -0.0599558   
11.5191   1.7568   -0.0481931   
11.7425   1.97928   -0.0794051   
11.8942   2.11656   -0.0655966   
11.8942   2.11656   -0.0655966   
12.1278   2.38391   -0.0287434   
12.1278   2.38391   -0.0287434   
12.5385   2.69791   -0.0784349   
12.6404   2.63278   -0.0895177   
13.0023   2.85323   -0.0254668   
13.4394   3.08134   -0.109631   
13.4394   3.08134   -0.109631   
14.2839   3.30948   -0.108245   
14.4535   3.35551   0.0129619   
15.2311   3.5307   -0.099272   
15.5424   3.52322   0.046634   
15.852   3.60052   -0.119389   
16.9269   3.48693   0.120785   
17.6052   3.61272   -0.125226   
18.7755   3.1548   0.232314   
21.5127   3.13199   0.179965   
21.5127   3.13199   0.179965   
22.9457   2.04702   0.104189   
25.2108   2.69229   0.581501   
27.189   0.681409   -0.0562263   
0.0310122   0.00313795   -4.37023e-07   
0.0310133   0.00313837   -8.01902e-07   
0.0310147   0.00313372   -1.10111e-06   
0.0310167   0.0031301   -1.44645e-06   
0.0310192   0.00312533   -1.76012e-06   
0.0310218   0.00311937   -2.10096e-06   
0.0310243   0.00311311   -2.45448e-06   
0.0310272   0.0031058   -5.73121e-06   
0.0310388   0.00309969   -3.25167e-06   
0.0310381   0.00309234   -4.91224e-06   
0.031047   0.00308019   -3.67876e-06   
0.031047   0.00308019   -3.67876e-06   
0.0310604   0.00305749   -5.26529e-06   
0.0310633   0.00303789   -9.98115e-06   
0.031087   0.00303041   -6.2174e-06   
0.031087   0.00303041   -6.2174e-06   
0.0310858   0.00299131   -8.76446e-06   
0.0311108   0.00300714   -1.6588e-05   
0.0311456   0.00293703   -1.95742e-05   
0.0311146   0.00286465   -1.77682e-05   
0.0311028   0.00278993   -3.80975e-05   
0.0311203   0.00289281   -7.18061e-05   
0.0309901   0.00266845   -0.000139197   
0.0310117   0.00313945   -2.32508e-07   
0.0310106   0.00314014   -4.25792e-07   
0.0310093   0.00314525   -8.04112e-07   
0.0310069   0.00314992   -1.45784e-06   
0.0310017   0.00314766   -1.47711e-06   
0.0309983   0.00315285   -1.58644e-06   
0.0309889   0.00317578   -1.81828e-06   
0.0309806   0.0031745   -4.26952e-06   
0.0309822   0.00318343   -1.85439e-06   
0.0309739   0.0031927   -2.08521e-06   
0.0309647   0.00320348   -2.28672e-06   
0.0309446   0.00322823   -2.67777e-06   
0.0309446   0.00322823   -2.67777e-06   
0.0309321   0.00325564   -7.13753e-06   
0.030921   0.00325822   -2.84878e-06   
0.0309088   0.00327468   -2.81715e-06   
0.0308966   0.00329331   -2.74103e-06   
0.0308808   0.00332764   -8.19048e-06   
0.0308636   0.00335615   -2.70376e-07   
0.0308636   0.00335615   -2.70376e-07   
0.0308742   0.0034006   1.14346e-05   
0.0309265   0.00344063   3.13365e-05   
0.0310613   0.00352781   7.53464e-05   
11.0669   -0.676876   -0.221935   
9.81989   -0.310621   0.487203   
8.90423   -0.52627   1.37268   
11.9384   -0.00660831   -0.896255   
11.0127   -0.117846   -0.723698   
8.73025   0.149796   0.334091   
13.0376   2.12886   -0.777279   
4.45548   -0.0767348   1.63133   
7.88464   0.481425   0.617597   
10.5679   -0.281922   0.0332348   
11.2084   -0.128364   -0.16743   
2.41038   -1.37333   2.07999   
17.0798   2.96573   0.326741   
11.3456   -0.0711409   -0.0803116   
0.855282   -3.39376   0.767968   
21.6803   3.10973   4.2056   
7.20133   0.926994   0.119062   
22.0798   2.08768   2.00285   
-0.351756   -5.54451   -0.00700122   
-0.00611766   -6.74084   -0.0940879   
25.395   0.901515   1.639   
12.5977   -1.20439   0.94135   
7.17731   -1.78817   2.94553   
6.71958   -0.550187   2.20413   
12.8517   0.906547   -0.858494   
6.76447   -0.0956037   1.73042   
12.1414   1.02734   -0.931588   
11.0946   -0.302387   -0.300153   
11.2169   -0.0565912   -0.353999   
10.69   -0.435996   -0.00205466   
10.2725   -0.931522   0.816625   
11.4531   1.25015   -0.667738   
6.36082   0.517473   1.04623   
14.7229   1.61788   3.13208   
3.51615   -1.62476   2.24128   
8.63344   -0.0266752   0.804477   
7.41186   0.23443   1.02468   
17.3003   2.51732   1.13598   
2.3376   -2.42725   2.04802   
10.0119   -0.365992   0.292854   
11.6358   -0.0153732   -0.119863   
9.15376   -0.0685509   0.448555   
6.75359   0.702915   0.512365   
11.7246   -0.0213882   -0.0708073   
8.24818   0.396395   0.466153   
3.83754   -0.531453   1.95275   
13.757   2.45468   -0.56835   
9.69375   -0.704967   0.784859   
19.2677   2.44098   1.80259   
0.531555   -3.37818   1.01264   
11.0768   0.0131655   -0.22089   
10.257   0.24551   -0.279395   
7.04089   0.873315   0.170137   
1.82097   -0.630134   0.578363   
15.0149   3.36405   -0.155707   
11.7656   -0.014195   -0.0443402   
11.1176   -0.0738234   -0.0194008   
7.59201   0.743454   0.185767   
10.5308   0.0183021   -0.299189   
-0.231598   -5.70109   -0.17794   
9.19496   0.189409   0.132516   
12.1419   2.28507   -0.390805   
5.00296   0.632147   0.636859   
10.9087   -0.172305   -0.0790427   
11.2844   -0.0425654   -0.0140391   
18.727   3.27114   0.689488   
0.449528   -2.70936   0.785157   
11.4942   -0.514294   -0.598458   
7.37438   0.760664   0.372425   
11.5594   -0.0162038   0.00604938   
10.0339   0.179657   -0.157258   
7.47281   0.792923   0.0800253   
3.18951   0.146714   0.487517   
13.0947   2.80088   -0.175664   
11.8862   -0.0143987   -0.0297006   
9.50382   0.00557148   -0.056832   
-0.0812026   -3.26325   0.188998   
19.7331   3.00374   0.474099   
11.3984   -0.045261   -0.0412895   
7.32288   0.789795   0.297974   
10.9014   -1.68257   1.3884   
12.0326   -1.30123   0.244776   
13.4652   0.0992676   -0.441694   
6.56412   -1.12912   3.04704   
12.9429   0.710206   2.77912   
10.0164   -1.19799   1.24223   
8.78579   -1.81201   2.758   
11.7403   0.642549   -0.960217   
6.83988   0.151958   1.31634   
14.2604   0.325696   1.33621   
11.9374   -0.79189   -0.42415   
11.4143   0.357279   -0.932983   
11.1212   -0.885326   -0.0231014   
6.02215   -1.89033   3.11214   
11.4779   0.00449923   -0.916138   
12.461   0.546034   -0.982197   
4.51589   -1.26362   2.68561   
15.0964   1.3836   0.621585   
11.4716   -0.774478   -0.42549   
14.0594   0.27165   0.118526   
4.63308   -1.6532   2.9315   
11.287   0.82936   -0.796091   
7.70441   -0.0971701   1.28677   
6.7686   -0.948789   2.56404   
8.42008   -0.277686   1.11195   
12.0462   0.609987   -1.00092   
3.97613   -1.943   2.74161   
11.0942   -0.433007   -0.344316   
11.2456   -0.133484   -0.266928   
10.2963   -0.211115   0.07836   
11.1653   -0.290538   -0.488452   
7.39306   0.672758   0.542995   
11.1893   -0.186973   -0.392242   
10.881   -0.747076   0.00783522   
6.72269   0.600381   0.830832   
11.6743   -0.478769   -0.700689   
11.0902   1.03716   -0.501144   
10.9826   -0.209621   -0.143046   
11.1498   -0.214099   -0.580191   
16.7376   2.44871   0.675443   
6.36957   0.664542   0.628915   
10.8251   -0.301524   -0.10225   
10.7613   -1.16031   0.579365   
10.9235   0.615413   -0.646688   
10.7536   0.394393   -0.60731   
5.09703   -0.493571   2.25202   
10.1281   -0.239098   0.151054   
7.1337   0.805003   0.42289   
11.0771   -0.151324   -0.537422   
10.6077   0.41091   -0.485876   
11.3185   -0.373609   -0.735659   
10.9179   0.0289672   -0.774403   
10.5741   0.00718861   -0.548207   
9.16066   -0.643677   1.05495   
13.7641   1.45591   -0.619726   
5.64356   0.542977   0.975426   
14.1854   1.97549   -0.670004   
11.1707   -0.170626   -0.22378   
11.2369   -0.406118   -0.541385   
5.35513   0.198677   1.38063   
8.1712   0.0978625   0.976462   
8.02833   0.275446   0.633084   
11.9004   1.81176   -0.655033   
10.564   -0.518257   0.160991   
8.62045   0.0983089   0.553506   
15.0666   2.25507   -0.343716   
10.4076   -0.000920106   -0.446471   
9.50853   0.0615558   0.153201   
11.1252   -0.164862   -0.68136   
5.85228   0.738912   0.448987   
10.5569   -0.431355   0.0619421   
5.93994   0.302502   1.21711   
9.11926   -0.373086   0.895141   
10.9576   0.189965   -0.782253   
12.0195   1.45622   -0.782824   
9.69246   -0.255719   0.397298   
6.92455   0.877608   0.227658   
10.399   -0.49465   0.21472   
10.4712   0.391053   -0.322199   
10.9824   -0.0601217   -0.482928   
11.3205   1.39181   -0.322368   
14.1079   3.06623   -0.235875   
9.29924   -0.235047   0.717908   
10.3946   -0.279978   0.114653   
10.8469   -0.442851   -0.134564   
9.27674   0.0234394   0.273685   
11.0686   -0.0887311   -0.0686743   
10.5907   0.123608   -0.59573   
10.8449   -0.00762976   -0.518762   
5.32698   0.736277   0.285108   
11.3354   -0.120061   -0.208947   
11.8477   1.93738   -0.325001   
7.84048   0.574948   0.338679   
9.93964   -0.600033   0.493592   
10.0545   -0.254753   0.224878   
7.69116   0.495933   0.49368   
11.3909   -0.532807   -0.537788   
9.9555   -0.720018   0.593394   
11.3648   -0.03766   -0.180585   
10.3352   -0.749251   0.561521   
14.8716   2.85883   -0.435375   
8.54421   0.303088   0.126112   
10.8592   -0.0250359   -0.21558   
18.4321   2.76481   3.48383   
8.76411   -0.093548   0.689967   
3.1248   -0.15957   1.16031   
10.7262   -0.228294   -0.0345099   
9.48705   -0.121849   0.320262   
5.40693   0.0702107   1.56588   
11.4495   -0.0486751   -0.185884   
3.08785   -0.907958   2.10087   
5.5713   -0.411044   2.1496   
11.8291   -0.00840293   -0.0560869   
8.17315   0.54663   0.229914   
13.1477   2.57819   -0.614185   
17.057   3.16402   0.385433   
7.61532   0.4572   0.778385   
2.88598   -1.8304   2.27137   
1.01702   -1.85877   1.15281   
9.32062   -0.169523   0.581212   
2.58746   -2.39267   1.95547   
11.5568   -0.0339444   -0.122574   
4.03809   0.130275   1.16081   
10.3941   0.392008   -0.197864   
4.25187   -0.324804   1.8813   
4.17936   0.441146   0.696198   
12.3628   1.8108   -0.78675   
12.5566   2.64475   -0.274476   
9.14677   0.0498178   0.381241   
8.25044   0.340894   0.286404   
8.47749   0.288662   0.418383   
9.94088   -0.744325   0.905751   
12.4508   2.01203   -0.70119   
4.38098   0.201094   1.17844   
8.42551   0.285356   0.268489   
15.8279   3.25388   0.00592019   
2.78918   -0.348273   1.18176   
9.84115   -0.429445   0.604508   
0.926937   -3.03854   0.649512   
1.72379   -1.06685   1.26295   
11.1129   -0.0723038   -0.344658   
14.2685   2.96499   -0.315403   
7.6927   0.649641   0.315097   
15.9755   2.59115   5.36208   
6.31152   -0.277068   1.92759   
10.9955   -0.0621427   -0.0379221   
8.83879   0.182712   0.228642   
7.96629   0.54828   0.1349   
10.9119   0.356925   -0.752789   
11.0587   -0.169971   -0.135304   
12.8296   1.58915   -0.864576   
2.98403   -0.902855   1.81773   
11.3032   -0.0604845   -0.0463835   
9.88784   -0.401249   0.368949   
1.36428   -2.95538   1.33656   
1.84024   -2.30044   1.77036   
11.1101   -0.117402   -0.0932015   
18.8799   2.31365   2.25728   
6.40023   0.879771   0.164791   
11.3987   -0.0833859   -0.12933   
7.24729   0.804693   0.328459   
10.2517   0.0115731   -0.280056   
12.5557   1.29403   -0.958005   
11.3297   -0.04351   -0.0379931   
11.5476   -0.0211683   -0.0214212   
7.50756   0.635378   0.552267   
4.42755   0.572228   0.279227   
3.99831   0.456631   0.486622   
1.69227   -2.76105   1.76801   
7.31059   0.835661   0.135121   
11.3423   -0.0474985   -0.0372994   
18.5085   3.27114   0.349641   
0.606342   -1.94818   0.378028   
9.3929   0.116222   0.0806346   
7.10495   0.920467   0.0624999   
7.21936   0.940643   0.0544701   
11.3207   -0.0949066   -0.12228   
8.86711   0.199327   0.0829724   
10.2203   -0.0787813   0.0242964   
11.7956   -0.0154828   -0.0287009   
11.6797   -0.0248978   -0.0413396   
15.4628   3.44265   -0.0980087   
11.9366   -0.0105983   -0.0199276   
11.4461   -0.0456089   -0.0810329   
10.2726   0.171749   -0.42577   
9.26052   -1.89582   2.43778   
11.0795   -1.45389   0.920105   
11.8256   -1.5626   1.07644   
12.8944   -0.658673   -0.101375   
7.78992   -1.55286   2.59707   
11.6261   -1.1322   1.99227   
7.17189   -1.74558   3.1267   
10.2643   -1.91059   2.12125   
10.1873   -1.41582   1.46283   
12.779   -0.416072   2.14768   
9.60339   -1.14801   1.62236   
8.61635   -1.13435   1.85128   
13.3753   -0.455715   0.267372   
8.29624   -1.72787   2.8288   
9.48457   -1.35921   1.98083   
11.9122   -1.34871   0.510381   
11.5619   -1.59841   1.83922   
11.5909   -1.33146   0.375866   
11.3651   -1.06753   -0.0445526   
11.7202   -0.958859   -0.117632   
11.3013   -0.986773   0.120052   
12.3583   -0.381656   -0.65106   
8.06563   -1.89085   2.84909   
10.6667   -1.29267   0.828782   
6.8199   -1.79639   3.00194   
11.6168   -0.0315162   -0.899546   
8.01374   -0.63393   1.7671   
11.7471   0.22317   -0.959155   
13.2401   -0.596907   1.01316   
6.00316   -1.71884   3.05979   
9.21255   -1.05064   1.45493   
7.82686   -1.09432   2.39832   
12.0535   -0.441166   -0.693598   
12.6811   0.35544   -0.7988   
10.8765   -1.10959   0.336787   
12.3976   -0.982655   -0.0833997   
12.0717   -0.898787   -0.242345   
11.7845   -0.623117   -0.568586   
13.474   -0.434297   0.690698   
9.84768   -1.6072   2.64451   
12.9129   -0.243258   -0.393918   
6.15633   -1.41128   2.79615   
11.6118   1.45248   3.9856   
8.86148   -0.378788   1.20648   
11.7935   -0.144441   -0.874961   
11.7756   -0.701283   -0.474179   
7.45509   -1.33028   2.72464   
11.0217   1.09446   -0.2833   
7.30138   -0.953401   2.25588   
8.67081   -0.867982   2.96475   
8.15478   -0.261989   1.39063   
13.4754   0.614314   2.42591   
9.02498   -0.742086   1.24338   
11.1119   -0.333238   -0.381886   