<VTKFile type="UnstructuredGrid"  version="0.1"   > 
<UnstructuredGrid> 
<Piece  NumberOfPoints="  153" NumberOfCells=" 128"> 
<Points> 
<DataArray  type="Float64"  NumberOfComponents="3"  format="ascii" > 
0.000000 0.000000 0.0 
0.000000 0.000000 0.0 
0.000000 0.000000 0.0 
0.000000 0.000000 0.0 
0.000000 0.000000 0.0 
0.000000 0.000000 0.0 
0.000000 0.000000 0.0 
0.000000 0.000000 0.0 
0.000000 0.000000 0.0 
-0.140625 0.000000 0.0 
-0.133292 0.026487 0.0 
-0.122846 0.051305 0.0 
-0.109354 0.073714 0.0 
-0.093046 0.093046 0.0 
-0.073714 0.109354 0.0 
-0.051305 0.122846 0.0 
-0.026487 0.133292 0.0 
0.000000 0.140625 0.0 
-0.262500 0.000000 0.0 
-0.254355 0.054506 0.0 
-0.239174 0.105774 0.0 
-0.216847 0.151079 0.0 
-0.187911 0.187911 0.0 
-0.151079 0.216847 0.0 
-0.105774 0.239174 0.0 
-0.054506 0.254355 0.0 
0.000000 0.262500 0.0 
-0.365625 0.000000 0.0 
-0.359312 0.083438 0.0 
-0.342895 0.161268 0.0 
-0.315852 0.228061 0.0 
-0.278845 0.278845 0.0 
-0.228061 0.315852 0.0 
-0.161268 0.342895 0.0 
-0.083438 0.359312 0.0 
0.000000 0.365625 0.0 
-0.450000 0.000000 0.0 
-0.444848 0.112576 0.0 
-0.428334 0.215290 0.0 
-0.399700 0.300033 0.0 
-0.359619 0.359619 0.0 
-0.300033 0.399700 0.0 
-0.215290 0.428334 0.0 
-0.112576 0.444848 0.0 
0.000000 0.450000 0.0 
-0.540625 0.000000 0.0 
-0.534698 0.138658 0.0 
-0.515699 0.264163 0.0 
-0.482757 0.366433 0.0 
-0.436645 0.436645 0.0 
-0.366433 0.482757 0.0 
-0.264163 0.515699 0.0 
-0.138658 0.534698 0.0 
0.000000 0.540625 0.0 
-0.662500 0.000000 0.0 
-0.654391 0.158916 0.0 
-0.628397 0.305922 0.0 
-0.583325 0.429762 0.0 
-0.520235 0.520235 0.0 
-0.429762 0.583325 0.0 
-0.305922 0.628397 0.0 
-0.158916 0.654391 0.0 
0.000000 0.662500 0.0 
-0.815625 0.000000 0.0 
-0.803927 0.173351 0.0 
-0.766426 0.340566 0.0 
-0.701404 0.490021 0.0 
-0.610389 0.610389 0.0 
-0.490021 0.701404 0.0 
-0.340566 0.766426 0.0 
-0.173351 0.803927 0.0 
0.000000 0.815625 0.0 
-1.000000 0.000000 0.0 
-0.983305 0.181963 0.0 
-0.929788 0.368095 0.0 
-0.836996 0.547210 0.0 
-0.707107 0.707107 0.0 
-0.547210 0.836996 0.0 
-0.368095 0.929788 0.0 
-0.181963 0.983305 0.0 
0.000000 1.000000 0.0 
-1.275893 0.000000 0.0 
-1.254592 0.232165 0.0 
-1.186310 0.469649 0.0 
-1.067917 0.698181 0.0 
-0.902192 0.902192 0.0 
-0.698181 1.067917 0.0 
-0.469649 1.186310 0.0 
-0.232165 1.254592 0.0 
0.000000 1.275893 0.0 
-1.603571 0.000000 0.0 
-1.576800 0.291791 0.0 
-1.490982 0.590266 0.0 
-1.342182 0.877490 0.0 
-1.133896 1.133896 0.0 
-0.877490 1.342182 0.0 
-0.590266 1.490982 0.0 
-0.291791 1.576800 0.0 
0.000000 1.603571 0.0 
-1.983036 0.000000 0.0 
-1.949930 0.360839 0.0 
-1.843803 0.729945 0.0 
-1.659792 1.085136 0.0 
-1.402218 1.402218 0.0 
-1.085136 1.659792 0.0 
-0.729945 1.843803 0.0 
-0.360839 1.949930 0.0 
0.000000 1.983036 0.0 
-2.414286 0.000000 0.0 
-2.373980 0.439311 0.0 
-2.244775 0.888686 0.0 
-2.020746 1.321121 0.0 
-1.707158 1.707158 0.0 
-1.321121 2.020746 0.0 
-0.888686 2.244775 0.0 
-0.439311 2.373980 0.0 
0.000000 2.414286 0.0 
-2.770536 0.000000 0.0 
-2.733873 0.573055 0.0 
-2.604328 1.129719 0.0 
-2.375832 1.634677 0.0 
-2.053164 2.053164 0.0 
-1.634677 2.375832 0.0 
-1.129719 2.604328 0.0 
-0.573055 2.733873 0.0 
0.000000 2.770536 0.0 
-3.153571 0.000000 0.0 
-3.132465 0.844861 0.0 
-3.032218 1.586326 0.0 
-2.848349 2.178479 0.0 
-2.583561 2.583561 0.0 
-2.178479 2.848349 0.0 
-1.586326 3.032218 0.0 
-0.844861 3.132465 0.0 
0.000000 3.153571 0.0 
-3.563393 0.000000 0.0 
-3.558468 1.242891 0.0 
-3.505498 2.224759 0.0 
-3.402767 2.903824 0.0 
-3.250995 3.250995 0.0 
-2.903824 3.402767 0.0 
-2.224759 3.505498 0.0 
-1.242891 3.558468 0.0 
0.000000 3.563393 0.0 
-4.000000 0.000000 0.0 
-4.000000 1.750000 0.0 
-4.000000 3.000000 0.0 
-4.000000 3.750000 0.0 
-4.000000 4.000000 0.0 
-3.750000 4.000000 0.0 
-3.000000 4.000000 0.0 
-1.750000 4.000000 0.0 
0.000000 4.000000 0.0 
</DataArray> 
</Points> 
<Cells> 
<DataArray  type="Int32"  Name="connectivity"  format="ascii"> 
0 1 10 9 
1 2 11 10 
2 3 12 11 
3 4 13 12 
4 5 14 13 
5 6 15 14 
6 7 16 15 
7 8 17 16 
9 10 19 18 
10 11 20 19 
11 12 21 20 
12 13 22 21 
13 14 23 22 
14 15 24 23 
15 16 25 24 
16 17 26 25 
18 19 28 27 
19 20 29 28 
20 21 30 29 
21 22 31 30 
22 23 32 31 
23 24 33 32 
24 25 34 33 
25 26 35 34 
27 28 37 36 
28 29 38 37 
29 30 39 38 
30 31 40 39 
31 32 41 40 
32 33 42 41 
33 34 43 42 
34 35 44 43 
36 37 46 45 
37 38 47 46 
38 39 48 47 
39 40 49 48 
40 41 50 49 
41 42 51 50 
42 43 52 51 
43 44 53 52 
45 46 55 54 
46 47 56 55 
47 48 57 56 
48 49 58 57 
49 50 59 58 
50 51 60 59 
51 52 61 60 
52 53 62 61 
54 55 64 63 
55 56 65 64 
56 57 66 65 
57 58 67 66 
58 59 68 67 
59 60 69 68 
60 61 70 69 
61 62 71 70 
63 64 73 72 
64 65 74 73 
65 66 75 74 
66 67 76 75 
67 68 77 76 
68 69 78 77 
69 70 79 78 
70 71 80 79 
72 73 82 81 
73 74 83 82 
74 75 84 83 
75 76 85 84 
76 77 86 85 
77 78 87 86 
78 79 88 87 
79 80 89 88 
81 82 91 90 
82 83 92 91 
83 84 93 92 
84 85 94 93 
85 86 95 94 
86 87 96 95 
87 88 97 96 
88 89 98 97 
90 91 100 99 
91 92 101 100 
92 93 102 101 
93 94 103 102 
94 95 104 103 
95 96 105 104 
96 97 106 105 
97 98 107 106 
99 100 109 108 
100 101 110 109 
101 102 111 110 
102 103 112 111 
103 104 113 112 
104 105 114 113 
105 106 115 114 
106 107 116 115 
108 109 118 117 
109 110 119 118 
110 111 120 119 
111 112 121 120 
112 113 122 121 
113 114 123 122 
114 115 124 123 
115 116 125 124 
117 118 127 126 
118 119 128 127 
119 120 129 128 
120 121 130 129 
121 122 131 130 
122 123 132 131 
123 124 133 132 
124 125 134 133 
126 127 136 135 
127 128 137 136 
128 129 138 137 
129 130 139 138 
130 131 140 139 
131 132 141 140 
132 133 142 141 
133 134 143 142 
135 136 145 144 
136 137 146 145 
137 138 147 146 
138 139 148 147 
139 140 149 148 
140 141 150 149 
141 142 151 150 
142 143 152 151 
</DataArray> 
<DataArray  type="Int32"  Name="offsets"  format="ascii"> 
4 
8 
12 
16 
20 
24 
28 
32 
36 
40 
44 
48 
52 
56 
60 
64 
68 
72 
76 
80 
84 
88 
92 
96 
100 
104 
108 
112 
116 
120 
124 
128 
132 
136 
140 
144 
148 
152 
156 
160 
164 
168 
172 
176 
180 
184 
188 
192 
196 
200 
204 
208 
212 
216 
220 
224 
228 
232 
236 
240 
244 
248 
252 
256 
260 
264 
268 
272 
276 
280 
284 
288 
292 
296 
300 
304 
308 
312 
316 
320 
324 
328 
332 
336 
340 
344 
348 
352 
356 
360 
364 
368 
372 
376 
380 
384 
388 
392 
396 
400 
404 
408 
412 
416 
420 
424 
428 
432 
436 
440 
444 
448 
452 
456 
460 
464 
468 
472 
476 
480 
484 
488 
492 
496 
500 
504 
508 
512 
</DataArray> 
<DataArray  type="UInt8"  Name="types"  format="ascii"> 
9 
9 
9 
9 
9 
9 
9 
9 
9 
9 
9 
9 
9 
9 
9 
9 
9 
9 
9 
9 
9 
9 
9 
9 
9 
9 
9 
9 
9 
9 
9 
9 
9 
9 
9 
9 
9 
9 
9 
9 
9 
9 
9 
9 
9 
9 
9 
9 
9 
9 
9 
9 
9 
9 
9 
9 
9 
9 
9 
9 
9 
9 
9 
9 
9 
9 
9 
9 
9 
9 
9 
9 
9 
9 
9 
9 
9 
9 
9 
9 
9 
9 
9 
9 
9 
9 
9 
9 
9 
9 
9 
9 
9 
9 
9 
9 
9 
9 
9 
9 
9 
9 
9 
9 
9 
9 
9 
9 
9 
9 
9 
9 
9 
9 
9 
9 
9 
9 
9 
9 
9 
9 
9 
9 
9 
9 
9 
9 
</DataArray> 
</Cells> 
<PointData  Vectors="sigma"> 
<DataArray  type="Float64"  Name="sigma" NumberOfComponents="3" format="ascii"> 
31.018   3.15839   -1.36663e-05   
31.0191   3.16012   0.000920938   
31.0196   3.1615   0.00103227   
31.0195   3.16248   0.00106471   
31.0187   3.16284   0.00109823   
31.0177   3.16253   0.00104992   
31.0167   3.16187   0.000755113   
31.0161   3.16142   0.000141907   
31.0161   3.16139   0.000100698   
31.0142   3.16776   -9.98025e-05   
31.0145   3.16657   -0.00166774   
31.015   3.16469   -0.00291695   
31.0158   3.1626   -0.00374716   
31.0169   3.16069   -0.00407232   
31.0185   3.15925   -0.00378828   
31.0202   3.15823   -0.00297434   
31.0218   3.15758   -0.00171659   
31.0228   3.15723   -9.44067e-05   
31.0016   3.18203   -5.8235e-05   
31.003   3.17989   -0.00688086   
31.0058   3.17506   -0.012491   
31.0102   3.16854   -0.016152   
31.0155   3.16171   -0.0174604   
31.0212   3.15519   -0.0162126   
31.0267   3.14977   -0.0125929   
31.0309   3.1463   -0.00695239   
31.0327   3.14472   -6.93956e-05   
30.984   3.20072   -4.9856e-05   
30.9861   3.19736   -0.0150007   
30.9928   3.18888   -0.0277898   
31.003   3.177   -0.0362092   
31.014   3.16423   -0.0392283   
31.0247   3.15082   -0.0363253   
31.035   3.13821   -0.0279724   
31.0426   3.12987   -0.0151672   
31.0457   3.12723   -8.75191e-05   
30.971   3.22225   -0.000192827   
30.9733   3.21681   -0.0248113   
30.9814   3.20272   -0.0456669   
30.995   3.18372   -0.059346   
31.0102   3.16513   -0.0641802   
31.0259   3.14611   -0.0596265   
31.0428   3.12815   -0.0462195   
31.056   3.11703   -0.0252158   
31.061   3.11364   -0.00027921   
30.9526   3.25015   -0.000393364   
30.9568   3.24271   -0.0363014   
30.9684   3.22139   -0.0666239   
30.9857   3.19209   -0.0866798   
31.0045   3.16494   -0.0942835   
31.0274   3.14055   -0.0873966   
31.0539   3.11716   -0.0676467   
31.0737   3.10068   -0.0372059   
31.0813   3.09488   -0.00049438   
30.919   3.29359   -0.000376069   
30.925   3.28298   -0.0510629   
30.9432   3.25355   -0.0940438   
30.9694   3.21049   -0.122534   
31   3.16807   -0.132968   
31.0359   3.12944   -0.12354   
31.0741   3.09407   -0.0958013   
31.1018   3.06936   -0.0523466   
31.1114   3.05961   -0.000817813   
30.8664   3.35806   -0.000391009   
30.8771   3.34683   -0.06771   
30.9037   3.305   -0.127395   
30.9445   3.24078   -0.167187   
30.994   3.17178   -0.181547   
31.0523   3.10998   -0.168855   
31.1087   3.05734   -0.12982   
31.1447   3.01984   -0.0705239   
31.1594   3.00757   -0.000753066   
-0.83077   -10.1036   0.00744339   
-1.00577   -8.62082   -1.3323   
-1.04587   -4.52792   -1.30812   
0.488393   0.583288   0.942918   
5.10756   4.33391   4.70307   
12.8417   5.23926   7.75274   
21.5562   3.79316   7.94321   
28.1098   1.86078   4.86729   
30.4304   1.05939   -0.00800546   
-0.0651318   -2.52103   0.00773865   
0.696535   -2.47039   1.43543   
3.00164   -2.27802   2.59879   
6.52252   -1.78937   3.12319   
10.518   -0.81153   2.88646   
14.1195   0.651527   2.11854   
16.7369   2.25411   1.23858   
18.2207   3.46226   0.53353   
18.6798   3.88948   -0.00924082   
2.3435   -0.0743243   0.00625689   
3.14837   -0.376006   1.70821   
5.46879   -1.16233   2.82755   
8.63884   -1.88247   2.80482   
11.5733   -1.79011   1.71285   
13.4172   -0.58149   0.296567   
14.0847   1.26126   -0.573303   
14.1225   2.81617   -0.559751   
14.0789   3.38682   -0.00692239   
4.30843   0.659887   0.00439631   
4.99144   0.327997   1.39712   
6.91123   -0.552005   2.23788   
9.4069   -1.44805   2.05003   
11.4996   -1.64595   0.958449   
12.543   -0.812738   -0.318111   
12.621   0.669223   -0.985062   
12.3207   1.97278   -0.76182   
12.1692   2.45693   -0.00552153   
5.68655   0.892263   0.00710923   
6.17397   0.59553   1.00274   
7.58998   -0.228595   1.58185   
9.49672   -1.08004   1.3756   
11.1386   -1.31038   0.466278   
11.9029   -0.700242   -0.547201   
11.8046   0.349583   -1.01332   
11.4247   1.23333   -0.732733   
11.2695   1.559   -0.00558364   
6.43401   1.00429   0.0408842   
6.90895   0.61539   0.809861   
8.21823   -0.182066   1.07234   
9.69728   -0.789072   0.774632   
10.8629   -0.907653   0.130455   
11.4482   -0.612272   -0.535818   
11.392   -0.0346337   -0.916776   
11.0049   0.635516   -0.748966   
10.808   0.940276   -0.0389334   
6.95349   1.13876   0.0972159   
7.67677   0.493655   0.592977   
9.11862   -0.181193   0.486327   
10.2049   -0.411488   0.16675   
10.8284   -0.349433   -0.122763   
11.1569   -0.315271   -0.406015   
11.1392   -0.29463   -0.696602   
10.7051   0.0437411   -0.751335   
10.3201   0.340691   -0.134028   
7.14501   1.17055   0.100519   
8.35997   0.256482   0.256248   
9.89584   -0.219926   0.014575   
10.7906   -0.165404   -0.0952181   
11.2162   0.0179999   -0.087367   
11.485   0.255057   -0.100966   
11.3931   0.0134213   -0.268147   
10.6008   -0.276627   -0.53474   
9.66036   -0.166999   -0.268096   
7.0364   1.04926   4.27009e-14   
9.00286   -0.0678483   -0.0955227   
10.9101   -0.224442   -0.111979   
11.7486   -0.0368023   -0.00639379   
12.3386   0.358485   0.108651   
12.3682   0.457198   0.125188   
12.5125   0.769323   0.250109   
11.0287   -0.422572   0.0105548   
8.70422   -0.392375   -0.385581   
</DataArray> 
<DataArray  type="Float64"  Name="U" NumberOfComponents="3" format="ascii"> 
-0.000108417168   0.000000523515   0.0
-0.000091313748   -0.000011767478   0.0
-0.000079555688   -0.000017145478   0.0
-0.000066496812   -0.000021966548   0.0
-0.000052138597   -0.000026257174   0.0
-0.000036503062   -0.000030027457   0.0
-0.000019621425   -0.000033285248   0.0
-0.000005489913   -0.000035623269   0.0
-0.000001523329   -0.000036601499   0.0
-0.003795658097   0.000000000000   0.0
-0.003597796083   -0.000244044159   0.0
-0.003315938722   -0.000472776327   0.0
-0.002951886326   -0.000679380657   0.0
-0.002511786363   -0.000857691495   0.0
-0.001990027274   -0.001008186973   0.0
-0.001385126131   -0.001132740920   0.0
-0.000715111158   -0.001229197806   0.0
-0.000000000000   -0.001296886440   0.0
-0.007083801347   0.000000000000   0.0
-0.006864326895   -0.000501299435   0.0
-0.006455390646   -0.000973193117   0.0
-0.005853730979   -0.001390762379   0.0
-0.005073514085   -0.001730849589   0.0
-0.004079778674   -0.001998620611   0.0
-0.002856788401   -0.002205655927   0.0
-0.001472277186   -0.002346602171   0.0
-0.000000000000   -0.002422138513   0.0
-0.009864042221   0.000000000000   0.0
-0.009694598822   -0.000765489811   0.0
-0.009253938345   -0.001480499350   0.0
-0.008527048944   -0.002095748934   0.0
-0.007530697006   -0.002565348466   0.0
-0.006161250861   -0.002909456501   0.0
-0.004358043146   -0.003162416099   0.0
-0.002255247591   -0.003316740780   0.0
-0.000000000000   -0.003376106451   0.0
-0.012136951030   0.000000000000   0.0
-0.011999808495   -0.001030159223   0.0
-0.011559060937   -0.001971883239   0.0
-0.010792245710   -0.002751888415   0.0
-0.009715186568   -0.003303692277   0.0
-0.008109283174   -0.003678757919   0.0
-0.005821314646   -0.003950040268   0.0
-0.003044867321   -0.004108419961   0.0
-0.000000000000   -0.004158279654   0.0
-0.014575737244   0.000000000000   0.0
-0.014419190383   -0.001264560454   0.0
-0.013915262858   -0.002412323231   0.0
-0.013036791754   -0.003352852969   0.0
-0.011800504041   -0.004004300289   0.0
-0.009909596563   -0.004439028501   0.0
-0.007148196908   -0.004755621967   0.0
-0.003753609283   -0.004941730119   0.0
-0.000000000000   -0.005000642072   0.0
-0.017850825491   0.000000000000   0.0
-0.017637684799   -0.001441464799   0.0
-0.016951335593   -0.002780485600   0.0
-0.015753775312   -0.003918127464   0.0
-0.014066374005   -0.004760109666   0.0
-0.011632446766   -0.005359378124   0.0
-0.008288162408   -0.005797526128   0.0
-0.004308122082   -0.006055827398   0.0
-0.000000000000   -0.006137748062   0.0
-0.021956345787   0.000000000000   0.0
-0.021649788709   -0.001559366664   0.0
-0.020663145711   -0.003073182884   0.0
-0.018941625027   -0.004444004464   0.0
-0.016514093604   -0.005569016632   0.0
-0.013280703468   -0.006440747070   0.0
-0.009243706049   -0.007079334854   0.0
-0.004709659410   -0.007455742095   0.0
-0.000000000000   -0.007574920023   0.0
-0.026884162616   0.000000000000   0.0
-0.026446395486   -0.001617128838   0.0
-0.025044112587   -0.003287208019   0.0
-0.022597700400   -0.004926132090   0.0
-0.019145254570   -0.006428453848   0.0
-0.014857752312   -0.007685030567   0.0
-0.010017202040   -0.008607015101   0.0
-0.004959210764   -0.009149214423   0.0
-0.000000000000   -0.009321937624   0.0
-0.027421629236   0.000000000000   0.0
-0.026727661695   -0.000597801997   0.0
-0.024584605911   -0.001508322223   0.0
-0.021125371670   -0.002961230285   0.0
-0.016789249132   -0.004981514152   0.0
-0.012158250712   -0.007288389356   0.0
-0.007711617329   -0.009381327026   0.0
-0.003665830785   -0.010780026345   0.0
-0.000000000000   -0.011250108745   0.0
-0.027943179255   0.000000000000   0.0
-0.027180112608   -0.000378493605   0.0
-0.024836824150   -0.001152240670   0.0
-0.021101194638   -0.002638181618   0.0
-0.016511059156   -0.004886290418   0.0
-0.011744098485   -0.007553750841   0.0
-0.007323769183   -0.010018799458   0.0
-0.003440486722   -0.011681078537   0.0
-0.000000000000   -0.012241141981   0.0
-0.029067789005   0.000000000000   0.0
-0.028305603627   -0.000484673839   0.0
-0.025955769170   -0.001379018845   0.0
-0.022181193306   -0.003004907675   0.0
-0.017491601443   -0.005410397876   0.0
-0.012553611614   -0.008236578873   0.0
-0.007897189544   -0.010835768729   0.0
-0.003733258312   -0.012585956880   0.0
-0.000000000000   -0.013175742080   0.0
-0.030913528069   0.000000000000   0.0
-0.030169483003   -0.000709473916   0.0
-0.027866598040   -0.001829505323   0.0
-0.024111361481   -0.003665002845   0.0
-0.019329615680   -0.006241149621   0.0
-0.014121460845   -0.009198574399   0.0
-0.009021639427   -0.011907025369   0.0
-0.004309617417   -0.013741768297   0.0
-0.000000000000   -0.014364829968   0.0
-0.032750707018   0.000000000000   0.0
-0.031962437791   -0.001056617997   0.0
-0.029698612346   -0.002579651008   0.0
-0.026226602125   -0.004707773013   0.0
-0.021890058318   -0.007241614356   0.0
-0.016812663489   -0.009990351829   0.0
-0.011200900305   -0.012679109690   0.0
-0.005518543557   -0.014719556514   0.0
-0.000000000000   -0.015495972535   0.0
-0.034926643389   0.000000000000   0.0
-0.034081633050   -0.001754584158   0.0
-0.032100238233   -0.004064827819   0.0
-0.029449988441   -0.006587671021   0.0
-0.026265165707   -0.008762081046   0.0
-0.021791586864   -0.010828158822   0.0
-0.015493187928   -0.013251517710   0.0
-0.008018798567   -0.015650661910   0.0
-0.000000000000   -0.016853199142   0.0
-0.037372109507   0.000000000000   0.0
-0.036702704188   -0.002863593838   0.0
-0.035508747478   -0.006290850028   0.0
-0.034076551840   -0.009204676514   0.0
-0.032323410852   -0.010859251951   0.0
-0.028603417198   -0.011964090080   0.0
-0.021432765184   -0.013752152236   0.0
-0.011521847206   -0.016451053267   0.0
-0.000000000000   -0.018418922377   0.0
-0.040000000000   0.000000000000   0.0
-0.040000000000   -0.004469013779   0.0
-0.040000000000   -0.009378254210   0.0
-0.040000000000   -0.012761712169   0.0
-0.037782997563   -0.013980691102   0.0
-0.037230818613   -0.013949968537   0.0
-0.028918474964   -0.014565841419   0.0
-0.015724591016   -0.017120307647   0.0
-0.000000000000   -0.020092452753   0.0
</DataArray> 
</PointData> 
</Piece> 
</UnstructuredGrid> 
</VTKFile> 
