<VTKFile type="UnstructuredGrid"  version="0.1"   > 
<UnstructuredGrid> 
<Piece  NumberOfPoints="  594" NumberOfCells=" 256"> 
<Points> 
<DataArray  type="Float64"  NumberOfComponents="3"  format="ascii" > 
0.000000 8.000000 0.000000 
-0.718836 7.967639 0.000000 
-1.455704 7.866443 0.000000 
-2.201266 7.691192 0.000000 
-2.944758 7.438306 0.000000 
-3.674357 7.106272 0.000000 
-4.377678 6.695964 0.000000 
-5.042385 6.210826 0.000000 
-5.656854 5.656854 0.000000 
-6.210826 5.042385 0.000000 
-6.695964 4.377678 0.000000 
-7.106272 3.674357 0.000000 
-7.438306 2.944758 0.000000 
-7.691192 2.201266 0.000000 
-7.866443 1.455704 0.000000 
-7.967639 0.718836 0.000000 
-8.000000 0.000000 0.000000 
-7.967639 -0.718836 0.000000 
-7.866443 -1.455704 0.000000 
-7.691192 -2.201266 0.000000 
-7.438306 -2.944758 0.000000 
-7.106272 -3.674357 0.000000 
-6.695964 -4.377678 0.000000 
-6.210826 -5.042385 0.000000 
-5.656854 -5.656854 0.000000 
-5.042385 -6.210826 0.000000 
-4.377678 -6.695964 0.000000 
-3.674357 -7.106272 0.000000 
-2.944758 -7.438306 0.000000 
-2.201266 -7.691192 0.000000 
-1.455704 -7.866443 0.000000 
-0.718836 -7.967639 0.000000 
0.000000 -8.000000 0.000000 
0.000000 10.000000 0.000000 
-0.898544 9.959549 0.000000 
-1.819631 9.833054 0.000000 
-2.751582 9.613990 0.000000 
-3.680947 9.297883 0.000000 
-4.592946 8.882840 0.000000 
-5.472098 8.369955 0.000000 
-6.302981 7.763532 0.000000 
-7.071068 7.071068 0.000000 
-7.763532 6.302981 0.000000 
-8.369955 5.472098 0.000000 
-8.882840 4.592946 0.000000 
-9.297883 3.680947 0.000000 
-9.613990 2.751582 0.000000 
-9.833054 1.819631 0.000000 
-9.959549 0.898544 0.000000 
-10.000000 0.000000 0.000000 
-9.959549 -0.898544 0.000000 
-9.833054 -1.819631 0.000000 
-9.613990 -2.751582 0.000000 
-9.297883 -3.680947 0.000000 
-8.882840 -4.592946 0.000000 
-8.369955 -5.472098 0.000000 
-7.763532 -6.302981 0.000000 
-7.071068 -7.071068 0.000000 
-6.302981 -7.763532 0.000000 
-5.472098 -8.369955 0.000000 
-4.592946 -8.882840 0.000000 
-3.680947 -9.297883 0.000000 
-2.751582 -9.613990 0.000000 
-1.819631 -9.833054 0.000000 
-0.898544 -9.959549 0.000000 
0.000000 -10.000000 0.000000 
0.000000 8.000000 2.500000 
-0.718836 7.967639 2.500000 
-1.455704 7.866443 2.500000 
-2.201266 7.691192 2.500000 
-2.944758 7.438306 2.500000 
-3.674357 7.106272 2.500000 
-4.377678 6.695964 2.500000 
-5.042385 6.210826 2.500000 
-5.656854 5.656854 2.500000 
-6.210826 5.042385 2.500000 
-6.695964 4.377678 2.500000 
-7.106272 3.674357 2.500000 
-7.438306 2.944758 2.500000 
-7.691192 2.201266 2.500000 
-7.866443 1.455704 2.500000 
-7.967639 0.718836 2.500000 
-8.000000 0.000000 2.500000 
-7.967639 -0.718836 2.500000 
-7.866443 -1.455704 2.500000 
-7.691192 -2.201266 2.500000 
-7.438306 -2.944758 2.500000 
-7.106272 -3.674357 2.500000 
-6.695964 -4.377678 2.500000 
-6.210826 -5.042385 2.500000 
-5.656854 -5.656854 2.500000 
-5.042385 -6.210826 2.500000 
-4.377678 -6.695964 2.500000 
-3.674357 -7.106272 2.500000 
-2.944758 -7.438306 2.500000 
-2.201266 -7.691192 2.500000 
-1.455704 -7.866443 2.500000 
-0.718836 -7.967639 2.500000 
0.000000 -8.000000 2.500000 
0.000000 10.000000 2.500000 
-0.898544 9.959549 2.500000 
-1.819631 9.833054 2.500000 
-2.751582 9.613990 2.500000 
-3.680947 9.297883 2.500000 
-4.592946 8.882840 2.500000 
-5.472098 8.369955 2.500000 
-6.302981 7.763532 2.500000 
-7.071068 7.071068 2.500000 
-7.763532 6.302981 2.500000 
-8.369955 5.472098 2.500000 
-8.882840 4.592946 2.500000 
-9.297883 3.680947 2.500000 
-9.613990 2.751582 2.500000 
-9.833054 1.819631 2.500000 
-9.959549 0.898544 2.500000 
-10.000000 0.000000 2.500000 
-9.959549 -0.898544 2.500000 
-9.833054 -1.819631 2.500000 
-9.613990 -2.751582 2.500000 
-9.297883 -3.680947 2.500000 
-8.882840 -4.592946 2.500000 
-8.369955 -5.472098 2.500000 
-7.763532 -6.302981 2.500000 
-7.071068 -7.071068 2.500000 
-6.302981 -7.763532 2.500000 
-5.472098 -8.369955 2.500000 
-4.592946 -8.882840 2.500000 
-3.680947 -9.297883 2.500000 
-2.751582 -9.613990 2.500000 
-1.819631 -9.833054 2.500000 
-0.898544 -9.959549 2.500000 
0.000000 -10.000000 2.500000 
0.000000 8.000000 4.166667 
-0.718836 7.967639 4.166667 
-1.455704 7.866443 4.166667 
-2.201266 7.691192 4.166667 
-2.944758 7.438306 4.166667 
-3.674357 7.106272 4.166667 
-4.377678 6.695964 4.166667 
-5.042385 6.210826 4.166667 
-5.656854 5.656854 4.166667 
-6.210826 5.042385 4.166667 
-6.695964 4.377678 4.166667 
-7.106272 3.674357 4.166667 
-7.438306 2.944758 4.166667 
-7.691192 2.201266 4.166667 
-7.866443 1.455704 4.166667 
-7.967639 0.718836 4.166667 
-8.000000 0.000000 4.166667 
-7.967639 -0.718836 4.166667 
-7.866443 -1.455704 4.166667 
-7.691192 -2.201266 4.166667 
-7.438306 -2.944758 4.166667 
-7.106272 -3.674357 4.166667 
-6.695964 -4.377678 4.166667 
-6.210826 -5.042385 4.166667 
-5.656854 -5.656854 4.166667 
-5.042385 -6.210826 4.166667 
-4.377678 -6.695964 4.166667 
-3.674357 -7.106272 4.166667 
-2.944758 -7.438306 4.166667 
-2.201266 -7.691192 4.166667 
-1.455704 -7.866443 4.166667 
-0.718836 -7.967639 4.166667 
0.000000 -8.000000 4.166667 
0.000000 10.000000 4.166667 
-0.898544 9.959549 4.166667 
-1.819631 9.833054 4.166667 
-2.751582 9.613990 4.166667 
-3.680947 9.297883 4.166667 
-4.592946 8.882840 4.166667 
-5.472098 8.369955 4.166667 
-6.302981 7.763532 4.166667 
-7.071068 7.071068 4.166667 
-7.763532 6.302981 4.166667 
-8.369955 5.472098 4.166667 
-8.882840 4.592946 4.166667 
-9.297883 3.680947 4.166667 
-9.613990 2.751582 4.166667 
-9.833054 1.819631 4.166667 
-9.959549 0.898544 4.166667 
-10.000000 0.000000 4.166667 
-9.959549 -0.898544 4.166667 
-9.833054 -1.819631 4.166667 
-9.613990 -2.751582 4.166667 
-9.297883 -3.680947 4.166667 
-8.882840 -4.592946 4.166667 
-8.369955 -5.472098 4.166667 
-7.763532 -6.302981 4.166667 
-7.071068 -7.071068 4.166667 
-6.302981 -7.763532 4.166667 
-5.472098 -8.369955 4.166667 
-4.592946 -8.882840 4.166667 
-3.680947 -9.297883 4.166667 
-2.751582 -9.613990 4.166667 
-1.819631 -9.833054 4.166667 
-0.898544 -9.959549 4.166667 
0.000000 -10.000000 4.166667 
0.000000 8.000000 5.833333 
-0.718836 7.967639 5.833333 
-1.455704 7.866443 5.833333 
-2.201266 7.691192 5.833333 
-2.944758 7.438306 5.833333 
-3.674357 7.106272 5.833333 
-4.377678 6.695964 5.833333 
-5.042385 6.210826 5.833333 
-5.656854 5.656854 5.833333 
-6.210826 5.042385 5.833333 
-6.695964 4.377678 5.833333 
-7.106272 3.674357 5.833333 
-7.438306 2.944758 5.833333 
-7.691192 2.201266 5.833333 
-7.866443 1.455704 5.833333 
-7.967639 0.718836 5.833333 
-8.000000 0.000000 5.833333 
-7.967639 -0.718836 5.833333 
-7.866443 -1.455704 5.833333 
-7.691192 -2.201266 5.833333 
-7.438306 -2.944758 5.833333 
-7.106272 -3.674357 5.833333 
-6.695964 -4.377678 5.833333 
-6.210826 -5.042385 5.833333 
-5.656854 -5.656854 5.833333 
-5.042385 -6.210826 5.833333 
-4.377678 -6.695964 5.833333 
-3.674357 -7.106272 5.833333 
-2.944758 -7.438306 5.833333 
-2.201266 -7.691192 5.833333 
-1.455704 -7.866443 5.833333 
-0.718836 -7.967639 5.833333 
0.000000 -8.000000 5.833333 
0.000000 10.000000 5.833333 
-0.898544 9.959549 5.833333 
-1.819631 9.833054 5.833333 
-2.751582 9.613990 5.833333 
-3.680947 9.297883 5.833333 
-4.592946 8.882840 5.833333 
-5.472098 8.369955 5.833333 
-6.302981 7.763532 5.833333 
-7.071068 7.071068 5.833333 
-7.763532 6.302981 5.833333 
-8.369955 5.472098 5.833333 
-8.882840 4.592946 5.833333 
-9.297883 3.680947 5.833333 
-9.613990 2.751582 5.833333 
-9.833054 1.819631 5.833333 
-9.959549 0.898544 5.833333 
-10.000000 0.000000 5.833333 
-9.959549 -0.898544 5.833333 
-9.833054 -1.819631 5.833333 
-9.613990 -2.751582 5.833333 
-9.297883 -3.680947 5.833333 
-8.882840 -4.592946 5.833333 
-8.369955 -5.472098 5.833333 
-7.763532 -6.302981 5.833333 
-7.071068 -7.071068 5.833333 
-6.302981 -7.763532 5.833333 
-5.472098 -8.369955 5.833333 
-4.592946 -8.882840 5.833333 
-3.680947 -9.297883 5.833333 
-2.751582 -9.613990 5.833333 
-1.819631 -9.833054 5.833333 
-0.898544 -9.959549 5.833333 
0.000000 -10.000000 5.833333 
0.000000 8.000000 7.500000 
-0.718836 7.967639 7.500000 
-1.455704 7.866443 7.500000 
-2.201266 7.691192 7.500000 
-2.944758 7.438306 7.500000 
-3.674357 7.106272 7.500000 
-4.377678 6.695964 7.500000 
-5.042385 6.210826 7.500000 
-5.656854 5.656854 7.500000 
-6.210826 5.042385 7.500000 
-6.695964 4.377678 7.500000 
-7.106272 3.674357 7.500000 
-7.438306 2.944758 7.500000 
-7.691192 2.201266 7.500000 
-7.866443 1.455704 7.500000 
-7.967639 0.718836 7.500000 
-8.000000 0.000000 7.500000 
-7.967639 -0.718836 7.500000 
-7.866443 -1.455704 7.500000 
-7.691192 -2.201266 7.500000 
-7.438306 -2.944758 7.500000 
-7.106272 -3.674357 7.500000 
-6.695964 -4.377678 7.500000 
-6.210826 -5.042385 7.500000 
-5.656854 -5.656854 7.500000 
-5.042385 -6.210826 7.500000 
-4.377678 -6.695964 7.500000 
-3.674357 -7.106272 7.500000 
-2.944758 -7.438306 7.500000 
-2.201266 -7.691192 7.500000 
-1.455704 -7.866443 7.500000 
-0.718836 -7.967639 7.500000 
0.000000 -8.000000 7.500000 
0.000000 10.000000 7.500000 
-0.898544 9.959549 7.500000 
-1.819631 9.833054 7.500000 
-2.751582 9.613990 7.500000 
-3.680947 9.297883 7.500000 
-4.592946 8.882840 7.500000 
-5.472098 8.369955 7.500000 
-6.302981 7.763532 7.500000 
-7.071068 7.071068 7.500000 
-7.763532 6.302981 7.500000 
-8.369955 5.472098 7.500000 
-8.882840 4.592946 7.500000 
-9.297883 3.680947 7.500000 
-9.613990 2.751582 7.500000 
-9.833054 1.819631 7.500000 
-9.959549 0.898544 7.500000 
-10.000000 0.000000 7.500000 
-9.959549 -0.898544 7.500000 
-9.833054 -1.819631 7.500000 
-9.613990 -2.751582 7.500000 
-9.297883 -3.680947 7.500000 
-8.882840 -4.592946 7.500000 
-8.369955 -5.472098 7.500000 
-7.763532 -6.302981 7.500000 
-7.071068 -7.071068 7.500000 
-6.302981 -7.763532 7.500000 
-5.472098 -8.369955 7.500000 
-4.592946 -8.882840 7.500000 
-3.680947 -9.297883 7.500000 
-2.751582 -9.613990 7.500000 
-1.819631 -9.833054 7.500000 
-0.898544 -9.959549 7.500000 
0.000000 -10.000000 7.500000 
0.000000 8.000000 9.166667 
-0.718836 7.967639 9.166667 
[...]
<PointData  Vectors="sigma"> 
<DataArray  type="Float64"  Name="sigma" NumberOfComponents="6" format="ascii"> 
76519.533744   5208.844631   10113.472735   -729.907815   -11480.671741   57.630296   
69891.120557   4917.450660   8879.319695   4828.554735   -9138.942260   3944.447339   
60008.165408   4587.720778   7608.094813   5857.444350   -6111.304516   3369.052808   
49425.061737   3813.355510   6376.588039   7243.151035   -4087.096365   5147.945896   
36336.577826   2060.571459   4430.472804   5951.023369   -1610.148114   6635.661276   
25264.218150   -352.549283   3005.083537   4001.556742   553.623032   7040.490464   
15334.654754   -4100.289713   1477.115342   819.419996   2641.616116   6592.872526   
7421.969815   -8853.067667   118.646069   -2637.750483   4340.143479   5542.682993   
1520.300875   -14529.131470   -1108.020640   -6022.705903   5608.385991   4058.757633   
-2441.419167   -20819.269493   -2159.412348   -8824.384032   6369.613090   2369.704312   
-4689.849914   -27387.956747   -3021.829753   -10705.195042   6603.040181   630.376777   
-5543.911822   -33808.646873   -3679.803686   -11431.169868   6320.793154   -1010.985125   
-5382.023146   -39629.376560   -4129.303727   -10918.181301   5573.645719   -2444.631358   
-4635.038942   -44439.257549   -4388.883749   -9247.399009   4454.367828   -3589.440652   
-3747.965495   -47979.118653   -4517.908871   -6642.928541   3071.596671   -4404.112184   
-3073.817938   -50072.588950   -4556.374418   -3457.518705   1559.085114   -4877.748396   
-2845.851783   -50832.564622   -4598.332545   -63.050949   18.425918   -5035.067113   
-3073.817938   -50072.588950   -4556.374418   3457.518705   -1559.085114   -4877.748396   
-3747.965495   -47979.118653   -4517.908871   6642.928541   -3071.596671   -4404.112184   
-4635.038942   -44439.257549   -4388.883749   9247.399009   -4454.367828   -3589.440652   
-5382.023146   -39629.376560   -4129.303727   10918.181301   -5573.645719   -2444.631358   
-5543.911822   -33808.646872   -3679.803686   11431.169868   -6320.793154   -1010.985125   
-4689.849914   -27387.956747   -3021.829753   10705.195042   -6603.040181   630.376777   
-2441.419167   -20819.269493   -2159.412348   8824.384032   -6369.613090   2369.704312   
1520.300875   -14529.131470   -1108.020640   6022.705903   -5608.385991   4058.757633   
7421.969815   -8853.067667   118.646069   2637.750483   -4340.143479   5542.682993   
15334.654754   -4100.289713   1477.115342   -819.419996   -2641.616116   6592.872526   
25264.218150   -352.549283   3005.083537   -4001.556742   -553.623032   7040.490464   
36336.577826   2060.571459   4430.472804   -5951.023369   1610.148114   6635.661276   
49425.061737   3813.355510   6376.588039   -7243.151035   4087.096365   5147.945896   
60008.165408   4587.720778   7608.094813   -5857.444350   6111.304516   3369.052808   
69891.120557   4917.450660   8879.319695   -4828.554735   9138.942260   3944.447339   
76519.533744   5208.844631   10113.472735   729.907815   11480.671741   57.630296   
-67284.251805   7805.331628   -6562.519704   -1060.505791   -6656.739504   5177.122962   
-57596.859493   -2882.221057   -6485.660652   -17354.914134   -3654.629084   -485.570800   
-40756.567862   -2798.775090   -3180.742417   -16935.276191   -4215.507645   -1538.626912   
-26265.689395   -6940.203297   -2138.137001   -17278.632734   -3335.175269   -2279.487402   
-12829.592837   -8301.900747   -774.620025   -13594.213925   -3017.413623   -2802.166511   
-2443.327599   -8554.528943   -68.223196   -8471.891172   -2708.478182   -3071.963863   
4886.116344   -6542.965703   417.295798   -2346.894055   -2501.968215   -3208.822770   
9139.946582   -2375.958317   723.244839   3798.229971   -2315.339519   -3252.406146   
10730.938043   3892.113929   1048.682900   9255.088570   -2121.918194   -3273.592615   
10204.539881   11853.495523   1503.800245   13398.854090   -1906.238373   -3317.769487   
8212.191182   20857.983704   2132.307427   15741.684677   -1664.422262   -3406.976989   
5442.024932   30018.141966   2886.376783   15986.368298   -1395.145552   -3533.312922   
2557.231568   38325.074932   3651.496497   14107.398040   -1092.195580   -3669.195869   
122.241886   44845.605597   4292.131804   10403.098012   -754.915418   -3786.062882   
-1461.306902   48878.089113   4698.305178   5451.960579   -373.970967   -3858.912431   
-2054.069184   50193.013245   4792.479360   3.849865   -39.965796   -3888.285492   
-1461.306902   48878.089113   4698.305178   -5451.960579   373.970967   -3858.912431   
122.241886   44845.605597   4292.131804   -10403.098012   754.915418   -3786.062882   
2557.231568   38325.074932   3651.496497   -14107.398040   1092.195580   -3669.195869   
5442.024932   30018.141966   2886.376783   -15986.368298   1395.145552   -3533.312922   
8212.191182   20857.983704   2132.307427   -15741.684677   1664.422262   -3406.976989   
10204.539881   11853.495523   1503.800245   -13398.854090   1906.238373   -3317.769487   
10730.938043   3892.113929   1048.682900   -9255.088570   2121.918194   -3273.592615   
9139.946582   -2375.958317   723.244839   -3798.229971   2315.339519   -3252.406146   
4886.116344   -6542.965703   417.295798   2346.894055   2501.968215   -3208.822770   
-2443.327599   -8554.528943   -68.223196   8471.891172   2708.478182   -3071.963863   
-12829.592837   -8301.900747   -774.620025   13594.213925   3017.413623   -2802.166511   
-26265.689395   -6940.203297   -2138.137001   17278.632734   3335.175269   -2279.487402   
-40756.567862   -2798.775090   -3180.742417   16935.276191   4215.507645   -1538.626912   
-57596.859493   -2882.221057   -6485.660652   17354.914134   3654.629084   -485.570800   
-67284.251805   7805.331628   -6562.519704   1060.505791   6656.739504   5177.122962   
-67160.381673   17102.706139   -4962.756869   0.000000   11413.045435   325.660413   
-67284.251805   7805.331628   -6562.519704   1060.505791   6656.739504   5177.122962   
81001.944200   1771.795443   20667.599253   1322.916344   -5269.849904   -24.289352   
81021.125329   4949.389719   21750.363706   1447.977729   -4713.650361   -362.001621   
68703.514659   6150.474285   18469.247451   7890.115279   -3563.762035   52.797335   
50496.953012   5492.617599   12890.042440   9845.345692   -2303.057594   1288.909390   
37929.339120   5706.689558   9829.436909   10949.429766   -881.744385   2647.054015   
24359.197502   4039.933205   6401.074041   8068.716701   704.328390   3739.043398   
12579.351077   764.884038   3384.965371   3822.426793   2233.660211   4235.826987   
2791.672495   -4614.915710   509.275373   -1824.538067   3563.393773   4178.867048   
-4406.399759   -11730.698319   -2058.843916   -7568.896094   4534.369598   3603.387595   
-8828.793128   -20071.869732   -4237.038291   -12517.458269   5072.013580   2652.737783   
-10675.050687   -28858.267908   -5937.952152   -15859.433323   5156.284367   1487.692163   
-10447.234902   -37301.077248   -7135.278615   -17166.970218   4830.986118   275.488906   
-8869.721097   -44723.766622   -7869.441851   -16389.119912   4175.378702   -844.084142   
-6721.808195   -50663.533985   -8239.291662   -13794.219593   3282.031523   -1771.100391   
-4711.075447   -54911.268412   -8383.414499   -9840.236876   2240.399070   -2447.302196   
-3339.020063   -57381.663099   -8411.863402   -5085.692847   1123.944302   -2849.692872   
-2873.021256   -58247.335459   -8433.045174   -60.007418   -3.781519   -2978.798589   
-3339.020063   -57381.663099   -8411.863402   5085.692847   -1123.944302   -2849.692872   
-4711.075447   -54911.268412   -8383.414499   9840.236876   -2240.399070   -2447.302196   
-6721.808195   -50663.533985   -8239.291662   13794.219593   -3282.031523   -1771.100391   
-8869.721097   -44723.766622   -7869.441851   16389.119912   -4175.378702   -844.084142   
-10447.234902   -37301.077248   -7135.278615   17166.970218   -4830.986118   275.488906   
-10675.050687   -28858.267908   -5937.952152   15859.433323   -5156.284367   1487.692163   
-8828.793128   -20071.869732   -4237.038291   12517.458269   -5072.013580   2652.737783   
-4406.399759   -11730.698319   -2058.843916   7568.896094   -4534.369598   3603.387595   
2791.672495   -4614.915710   509.275373   1824.538067   -3563.393773   4178.867048   
12579.351077   764.884038   3384.965371   -3822.426793   -2233.660211   4235.826987   
24359.197502   4039.933205   6401.074041   -8068.716701   -704.328390   3739.043398   
37929.339120   5706.689558   9829.436909   -10949.429766   881.744385   2647.054015   
50496.953012   5492.617599   12890.042440   -9845.345692   2303.057594   1288.909390   
68703.514659   6150.474285   18469.247451   -7890.115279   3563.762035   52.797335   
81021.125329   4949.389719   21750.363706   -1447.977729   4713.650361   -362.001621   
81001.944200   1771.795443   20667.599252   -1322.916344   5269.849904   -24.289352   
-71721.696438   -8914.709883   -18798.930951   -21068.392660   -2326.702260   1550.017850   
-51526.545693   4669.943151   -8057.217890   -9199.593282   -3078.629169   1817.904014   
-40385.901062   -3737.765926   -7211.520831   -16173.103870   -2379.530822   960.772963   
-25463.954487   -3831.477094   -3326.358449   -13498.580334   -2260.883860   -20.265349   
-14037.925164   -5238.568984   -1383.275807   -10683.819931   -2098.340095   -969.791342   
-4956.552775   -4768.951795   21.560066   -6324.846751   -2065.554938   -1757.167848   
1206.808434   -2975.387975   670.129241   -1574.689000   -1975.390992   -2318.620991   
4798.484625   493.176181   974.965228   3078.239573   -1817.269337   -2657.276418   
6229.586213   5556.517112   1230.807844   7154.766599   -1561.552046   -2807.458859   
6037.875156   12003.092125   1698.328865   10250.101431   -1238.231217   -2832.055934   
4764.031527   19362.419929   2475.537628   12024.335179   -896.515087   -2794.179415   
2928.729440   26936.720661   3501.312873   12235.396323   -590.055568   -2740.475241   
998.589094   33880.598035   4592.859254   10829.777867   -352.068429   -2695.360076   
-636.508175   39382.052091   5536.088762   8007.747825   -186.565529   -2665.417821   
-1708.712983   42795.219163   6138.069667   4201.116529   -81.249864   -2650.101692   
-2113.806113   43927.703681   6336.467389   1.484099   7.935721   -2645.012060   
-1708.712983   42795.219163   6138.069667   -4201.116529   81.249864   -2650.101692   
-636.508175   39382.052091   5536.088762   -8007.747825   186.565529   -2665.417821   
998.589094   33880.598035   4592.859254   -10829.777867   352.068429   -2695.360076   
2928.729440   26936.720661   3501.312873   -12235.396323   590.055568   -2740.475241   
4764.031527   19362.419929   2475.537628   -12024.335179   896.515087   -2794.179415   
6037.875156   12003.092125   1698.328865   -10250.101431   1238.231217   -2832.055934   
6229.586213   5556.517112   1230.807844   -7154.766599   1561.552046   -2807.458859   
4798.484625   493.176181   974.965228   -3078.239573   1817.269337   -2657.276418   
1206.808433   -2975.387975   670.129241   1574.689000   1975.390992   -2318.620991   
-4956.552775   -4768.951795   21.560066   6324.846751   2065.554938   -1757.167848   
-14037.925164   -5238.568984   -1383.275807   10683.819931   2098.340095   -969.791342   
-25463.954487   -3831.477094   -3326.358449   13498.580334   2260.883860   -20.265349   
-40385.901062   -3737.765926   -7211.520831   16173.103870   2379.530822   960.772963   
-51526.545693   4669.943151   -8057.217890   9199.593282   3078.629169   1817.904014   
-71721.696438   -8914.709883   -18798.930951   21068.392660   2326.702260   1550.017850   
-90822.942291   -23692.997800   -29449.003225   0.000000   919.775283   -13.853692   
-71721.696438   -8914.709883   -18798.930951   21068.392660   2326.702260   1550.017850   
84773.350574   2564.875514   28538.807812   1116.877988   605.419799   15.519558   
83148.459625   5401.581778   28722.969592   1382.369815   364.442010   -273.615282   
69516.208305   6174.484154   24599.436454   6993.387524   29.396357   -167.022719   
51157.044631   5277.943698   18640.250292   8879.513548   -100.101319   -242.740165   
37984.473846   5111.411295   14461.710080   9647.526337   -91.153293   -124.054501   
24443.173333   3177.718377   9747.484641   6847.082889   62.062087   115.034638   
12601.755245   -418.127148   5155.805832   2717.485532   298.927127   389.722730   
2825.557573   -6013.591723   690.444454   -2665.842270   573.746754   569.592800   
-4398.784678   -13300.024920   -3444.595262   -8127.315324   832.165078   642.024344   
-8899.300684   -21779.392943   -7071.561276   -12813.808979   1025.364699   601.688749   
-10881.540746   -30716.194814   -10058.362378   -15961.413706   1123.714842   480.029865   
-10828.376072   -39337.968125   -12341.178886   -17153.488990   1114.611302   312.015510   
-9431.527269   -46961.319194   -13945.411679   -16326.512983   1004.474791   134.089506   
-7440.912773   -53095.959610   -14968.093681   -13725.866626   812.720288   -25.048771   
-5546.849535   -57503.799684   -15559.409100   -9788.275730   564.583225   -146.250066   
-4242.646532   -60074.444091   -15841.041438   -5058.457526   286.735873   -219.873801   
-3800.642635   -60976.623650   -15947.890646   -59.341409   0.746579   -244.179786   
-4242.646532   -60074.444091   -15841.041438   5058.457526   -286.735873   -219.873801   
-5546.849535   -57503.799684   -15559.409100   9788.275730   -564.583225   -146.250066   
-7440.912773   -53095.959610   -14968.093681   13725.866626   -812.720288   -25.048771   
-9431.527269   -46961.319194   -13945.411679   16326.512983   -1004.474791   134.089506   
-10828.376072   -39337.968125   -12341.178886   17153.488990   -1114.611302   312.015510   
-10881.540746   -30716.194814   -10058.362378   15961.413706   -1123.714842   480.029865   
-8899.300684   -21779.392943   -7071.561276   12813.808979   -1025.364699   601.688749   
-4398.784678   -13300.024920   -3444.595262   8127.315324   -832.165078   642.024344   
2825.557573   -6013.591723   690.444454   2665.842270   -573.746754   569.592800   
12601.755245   -418.127148   5155.805832   -2717.485532   -298.927127   389.722730   
24443.173333   3177.718377   9747.484641   -6847.082889   -62.062087   115.034638   
37984.473846   5111.411295   14461.710080   -9647.526337   91.153293   -124.054501   
51157.044631   5277.943698   18640.250292   -8879.513548   100.101319   -242.740165   
69516.208305   6174.484154   24599.436454   -6993.387524   -29.396357   -167.022719   
83148.459624   5401.581778   28722.969592   -1382.369815   -364.442010   -273.615282   
84773.350574   2564.875514   28538.807812   -1116.877988   -605.419799   15.519558   
-73238.041711   -6254.452078   -23285.505993   -18742.170541   89.742506   24.122295   
-53443.929051   3551.855985   -14187.709699   -10980.332948   126.977452   694.086113   
-41313.030294   -4106.851151   -12448.088462   -16880.182477   261.377405   911.985661   
-26177.001941   -4981.863037   -7898.751240   -14547.647915   313.552432   735.096951   
-14291.488933   -6309.803854   -4669.198284   -11434.015345   235.898618   408.300422   
-4874.395411   -5840.287342   -1853.709789   -6857.935355   117.356973   82.021394   
1633.320079   -3807.768398   400.192474   -1809.788029   -21.505923   -157.972701   
5491.964978   -26.853343   2285.727201   3124.234632   -106.821863   -278.787320   
7095.672427   5391.810104   3964.127660   7441.654380   -116.399042   -299.525984   
6957.219817   12161.522559   5566.811787   10707.782667   -50.480827   -264.621104   
5628.118815   19772.077695   7149.437901   12567.287586   55.543181   -223.284336   
3662.631536   27508.487916   8676.960123   12776.631342   154.050330   -208.029044   
1575.692456   34534.922110   10042.077792   11294.197438   203.620598   -225.701374   
-200.131775   40062.852670   11111.991588   8341.004629   185.101661   -262.138062   
-1362.358644   43481.761293   11769.042104   4372.778867   108.877034   -294.784205   
-1804.656295   44603.763569   11966.227285   2.863861   -1.862840   -307.539744   
-1362.358644   43481.761293   11769.042104   -4372.778867   -108.877034   -294.784205   
-200.131775   40062.852670   11111.991588   -8341.004629   -185.101661   -262.138062   
1575.692456   34534.922110   10042.077792   -11294.197438   -203.620598   -225.701374   
3662.631536   27508.487916   8676.960123   -12776.631342   -154.050330   -208.029044   
5628.118815   19772.077695   7149.437901   -12567.287586   -55.543181   -223.284336   
6957.219817   12161.522559   5566.811787   -10707.782667   50.480827   -264.621104   
7095.672427   5391.810104   3964.127660   -7441.654380   116.399042   -299.525984   
5491.964978   -26.853343   2285.727201   -3124.234632   106.821863   -278.787320   
1633.320079   -3807.768398   400.192474   1809.788029   21.505923   -157.972701   
-4874.395411   -5840.287342   -1853.709789   6857.935355   -117.356973   82.021394   
-14291.488933   -6309.803854   -4669.198284   11434.015345   -235.898618   408.300422   
-26177.001941   -4981.863037   -7898.751240   14547.647915   -313.552432   735.096951   
-41313.030294   -4106.851151   -12448.088462   16880.182477   -261.377405   911.985661   
-53443.929051   3551.855985   -14187.709699   10980.332948   -126.977452   694.086113   
-73238.041711   -6254.452078   -23285.505993   18742.170541   -89.742506   24.122295   
-90924.068132   -17474.209111   -31911.900481   0.000000   -136.418907   -17.754064   
-73238.041711   -6254.452078   -23285.505993   18742.170541   -89.742506   24.122295   
84218.060780   2349.706007   27345.369496   997.983011   -71.783868   -2.812333   
82386.125268   4853.227954   27639.315421   1769.210289   -84.339696   162.637934   
68932.208738   5538.255103   23945.475158   7287.491436   -103.068152   271.046810   
50737.252728   4738.136891   18328.656980   9058.821853   -86.628164   258.397385   
37324.500282   4550.302373   14304.327444   9595.148588   -45.032220   193.682904   
23743.736337   2629.934808   9664.650091   6669.617211   33.415001   170.083233   
12008.461240   -933.012721   5067.072181   2413.147429   133.266645   169.404930   
2418.246612   -6470.905564   513.957508   -3034.406403   250.094107   170.867093   
-4577.160239   -13669.946576   -3749.746617   -8516.483730   366.135704   152.254065   
-8862.760390   -22053.465998   -7539.021959   -13192.126298   465.567800   104.222010   
-10666.940400   -30908.591419   -10703.260850   -16314.479355   531.599640   26.018594   
-10481.019466   -39482.676204   -13165.978359   -17474.710224   551.431824   -74.881921   
-8988.973718   -47095.640858   -14935.618575   -16607.890519   518.565838   -185.136031   
-6931.011728   -53247.177741   -16095.742172   -13954.649998   434.935858   -288.848016   
-4990.177199   -57680.950777   -16786.119234   -9949.851134   310.579289   -371.618080   
-3658.986208   -60273.828256   -17127.367118   -5141.546181   159.839537   -423.713216   
-3206.606116   -61181.823502   -17251.071592   -59.176238   -0.454711   -440.957364   
-3658.986208   -60273.828256   -17127.367118   5141.546181   -159.839537   -423.713216   
-4990.177199   -57680.950777   -16786.119234   9949.851134   -310.579289   -371.618080   
-6931.011728   -53247.177741   -16095.742172   13954.649998   -434.935858   -288.848016   
-8988.973718   -47095.640858   -14935.618575   16607.890519   -518.565838   -185.136031   
-10481.019466   -39482.676204   -13165.978359   17474.710224   -551.431824   -74.881921   
-10666.940400   -30908.591419   -10703.260850   16314.479355   -531.599640   26.018594   
-8862.760390   -22053.465998   -7539.021959   13192.126298   -465.567800   104.222010   
-4577.160239   -13669.946576   -3749.746617   8516.483730   -366.135704   152.254065   
2418.246612   -6470.905564   513.957508   3034.406403   -250.094107   170.867093   
12008.461240   -933.012721   5067.072181   -2413.147429   -133.266645   169.404930   