<VTKFile type="UnstructuredGrid"  version="0.1"   > 
<UnstructuredGrid> 
<Piece  NumberOfPoints="  2178" NumberOfCells=" 1024"> 
<Points> 
<DataArray  type="Float64"  NumberOfComponents="3"  format="ascii" > 
300.000000 0.000000 0.000000 
299.701742 13.374073 0.000000 
298.786473 26.956331 0.000000 
297.225181 40.708618 0.000000 
294.991611 54.588916 0.000000 
292.062810 68.551549 0.000000 
288.419687 82.547464 0.000000 
284.047530 96.524613 0.000000 
278.936490 110.428413 0.000000 
273.082016 124.202304 0.000000 
266.485202 137.788378 0.000000 
259.153054 151.128073 0.000000 
251.098653 164.162926 0.000000 
242.341203 176.835351 0.000000 
232.905956 189.089438 0.000000 
222.824020 200.871741 0.000000 
212.132034 212.132034 0.000000 
200.871741 222.824020 0.000000 
189.089438 232.905956 0.000000 
176.835351 242.341203 0.000000 
164.162926 251.098653 0.000000 
151.128073 259.153054 0.000000 
137.788378 266.485202 0.000000 
124.202304 273.082016 0.000000 
110.428413 278.936490 0.000000 
96.524613 284.047530 0.000000 
82.547464 288.419687 0.000000 
68.551549 292.062810 0.000000 
54.588916 294.991611 0.000000 
40.708618 297.225181 0.000000 
26.956331 298.786473 0.000000 
13.374073 299.701742 0.000000 
0.000000 300.000000 0.000000 
297.000000 0.000000 0.000000 
296.704725 13.240333 0.000000 
295.798608 26.686768 0.000000 
294.252930 40.301531 0.000000 
292.041694 54.043027 0.000000 
289.142182 67.866033 0.000000 
285.535491 81.721990 0.000000 
281.207054 95.559367 0.000000 
276.147125 109.324129 0.000000 
270.351196 122.960281 0.000000 
263.820350 136.410494 0.000000 
256.561524 149.616793 0.000000 
248.587667 162.521297 0.000000 
239.917791 175.066997 0.000000 
230.576897 187.198544 0.000000 
220.595779 198.863023 0.000000 
210.010714 210.010714 0.000000 
198.863023 220.595779 0.000000 
187.198544 230.576897 0.000000 
175.066997 239.917791 0.000000 
162.521297 248.587667 0.000000 
149.616793 256.561524 0.000000 
136.410494 263.820350 0.000000 
122.960281 270.351196 0.000000 
109.324129 276.147125 0.000000 
95.559367 281.207054 0.000000 
81.721990 285.535491 0.000000 
67.866033 289.142182 0.000000 
54.043027 292.041694 0.000000 
40.301531 294.252930 0.000000 
26.686768 295.798608 0.000000 
13.240333 296.704725 0.000000 
0.000000 297.000000 0.000000 
300.000000 0.000000 13.636364 
299.701742 13.374073 13.636364 
298.786473 26.956331 13.636364 
297.225181 40.708618 13.636364 
294.991611 54.588916 13.636364 
292.062810 68.551549 13.636364 
288.419687 82.547464 13.636364 
284.047530 96.524613 13.636364 
278.936490 110.428413 13.636364 
273.082016 124.202304 13.636364 
266.485202 137.788378 13.636364 
259.153054 151.128073 13.636364 
251.098653 164.162926 13.636364 
242.341203 176.835351 13.636364 
232.905956 189.089438 13.636364 
222.824020 200.871741 13.636364 
212.132034 212.132034 13.636364 
200.871741 222.824020 13.636364 
189.089438 232.905956 13.636364 
176.835351 242.341203 13.636364 
164.162926 251.098653 13.636364 
151.128073 259.153054 13.636364 
137.788378 266.485202 13.636364 
124.202304 273.082016 13.636364 
110.428413 278.936490 13.636364 
96.524613 284.047530 13.636364 
82.547464 288.419687 13.636364 
68.551549 292.062810 13.636364 
54.588916 294.991611 13.636364 
40.708618 297.225181 13.636364 
26.956331 298.786473 13.636364 
13.374073 299.701742 13.636364 
0.000000 300.000000 13.636364 
297.000000 0.000000 13.636364 
296.704725 13.240333 13.636364 
295.798608 26.686768 13.636364 
294.252930 40.301531 13.636364 
292.041694 54.043027 13.636364 
289.142182 67.866033 13.636364 
285.535491 81.721990 13.636364 
281.207054 95.559367 13.636364 
276.147125 109.324129 13.636364 
270.351196 122.960281 13.636364 
263.820350 136.410494 13.636364 
256.561524 149.616793 13.636364 
248.587667 162.521297 13.636364 
239.917791 175.066997 13.636364 
230.576897 187.198544 13.636364 
220.595779 198.863023 13.636364 
210.010714 210.010714 13.636364 
198.863023 220.595779 13.636364 
187.198544 230.576897 13.636364 
175.066997 239.917791 13.636364 
162.521297 248.587667 13.636364 
149.616793 256.561524 13.636364 
136.410494 263.820350 13.636364 
122.960281 270.351196 13.636364 
109.324129 276.147125 13.636364 
95.559367 281.207054 13.636364 
81.721990 285.535491 13.636364 
67.866033 289.142182 13.636364 
54.043027 292.041694 13.636364 
40.301531 294.252930 13.636364 
26.686768 295.798608 13.636364 
13.240333 296.704725 13.636364 
0.000000 297.000000 13.636364 
300.000000 0.000000 22.727273 
299.701742 13.374073 22.727273 
298.786473 26.956331 22.727273 
297.225181 40.708618 22.727273 
294.991611 54.588916 22.727273 
292.062810 68.551549 22.727273 
288.419687 82.547464 22.727273 
284.047530 96.524613 22.727273 
278.936490 110.428413 22.727273 
273.082016 124.202304 22.727273 
266.485202 137.788378 22.727273 
259.153054 151.128073 22.727273 
251.098653 164.162926 22.727273 
242.341203 176.835351 22.727273 
232.905956 189.089438 22.727273 
222.824020 200.871741 22.727273 
212.132034 212.132034 22.727273 
200.871741 222.824020 22.727273 
189.089438 232.905956 22.727273 
176.835351 242.341203 22.727273 
164.162926 251.098653 22.727273 
151.128073 259.153054 22.727273 
137.788378 266.485202 22.727273 
124.202304 273.082016 22.727273 
110.428413 278.936490 22.727273 
96.524613 284.047530 22.727273 
82.547464 288.419687 22.727273 
68.551549 292.062810 22.727273 
54.588916 294.991611 22.727273 
40.708618 297.225181 22.727273 
26.956331 298.786473 22.727273 
13.374073 299.701742 22.727273 
0.000000 300.000000 22.727273 
297.000000 0.000000 22.727273 
296.704725 13.240333 22.727273 
295.798608 26.686768 22.727273 
294.252930 40.301531 22.727273 
292.041694 54.043027 22.727273 
289.142182 67.866033 22.727273 
285.535491 81.721990 22.727273 
281.207054 95.559367 22.727273 
276.147125 109.324129 22.727273 
270.351196 122.960281 22.727273 
263.820350 136.410494 22.727273 
256.561524 149.616793 22.727273 
248.587667 162.521297 22.727273 
239.917791 175.066997 22.727273 
230.576897 187.198544 22.727273 
220.595779 198.863023 22.727273 
210.010714 210.010714 22.727273 
198.863023 220.595779 22.727273 
187.198544 230.576897 22.727273 
175.066997 239.917791 22.727273 
162.521297 248.587667 22.727273 
149.616793 256.561524 22.727273 
136.410494 263.820350 22.727273 
122.960281 270.351196 22.727273 
109.324129 276.147125 22.727273 
95.559367 281.207054 22.727273 
81.721990 285.535491 22.727273 
67.866033 289.142182 22.727273 
54.043027 292.041694 22.727273 
40.301531 294.252930 22.727273 
26.686768 295.798608 22.727273 
13.240333 296.704725 22.727273 
0.000000 297.000000 22.727273 
300.000000 0.000000 31.818182 
299.701742 13.374073 31.818182 
298.786473 26.956331 31.818182 
297.225181 40.708618 31.818182 
294.991611 54.588916 31.818182 
292.062810 68.551549 31.818182 
288.419687 82.547464 31.818182 
284.047530 96.524613 31.818182 
278.936490 110.428413 31.818182 
273.082016 124.202304 31.818182 
266.485202 137.788378 31.818182 
259.153054 151.128073 31.818182 
251.098653 164.162926 31.818182 
242.341203 176.835351 31.818182 
232.905956 189.089438 31.818182 
222.824020 200.871741 31.818182 
212.132034 212.132034 31.818182 
200.871741 222.824020 31.818182 
189.089438 232.905956 31.818182 
176.835351 242.341203 31.818182 
164.162926 251.098653 31.818182 
151.128073 259.153054 31.818182 
137.788378 266.485202 31.818182 
124.202304 273.082016 31.818182 
110.428413 278.936490 31.818182 
96.524613 284.047530 31.818182 
82.547464 288.419687 31.818182 
68.551549 292.062810 31.818182 
54.588916 294.991611 31.818182 
40.708618 297.225181 31.818182 
26.956331 298.786473 31.818182 
13.374073 299.701742 31.818182 
0.000000 300.000000 31.818182 
297.000000 0.000000 31.818182 
296.704725 13.240333 31.818182 
295.798608 26.686768 31.818182 
294.252930 40.301531 31.818182 
292.041694 54.043027 31.818182 
289.142182 67.866033 31.818182 
285.535491 81.721990 31.818182 
281.207054 95.559367 31.818182 
276.147125 109.324129 31.818182 
270.351196 122.960281 31.818182 
263.820350 136.410494 31.818182 
256.561524 149.616793 31.818182 
248.587667 162.521297 31.818182 
239.917791 175.066997 31.818182 
230.576897 187.198544 31.818182 
220.595779 198.863023 31.818182 
210.010714 210.010714 31.818182 
198.863023 220.595779 31.818182 
187.198544 230.576897 31.818182 
175.066997 239.917791 31.818182 
162.521297 248.587667 31.818182 
149.616793 256.561524 31.818182 
136.410494 263.820350 31.818182 
122.960281 270.351196 31.818182 
109.324129 276.147125 31.818182 
95.559367 281.207054 31.818182 
81.721990 285.535491 31.818182 
67.866033 289.142182 31.818182 
54.043027 292.041694 31.818182 
40.301531 294.252930 31.818182 
26.686768 295.798608 31.818182 
13.240333 296.704725 31.818182 
0.000000 297.000000 31.818182 
300.000000 0.000000 40.909091 
299.701742 13.374073 40.909091 
298.786473 26.956331 40.909091 
297.225181 40.708618 40.909091 
294.991611 54.588916 40.909091 
292.062810 68.551549 40.909091 
288.419687 82.547464 40.909091 
284.047530 96.524613 40.909091 
278.936490 110.428413 40.909091 
273.082016 124.202304 40.909091 
266.485202 137.788378 40.909091 
259.153054 151.128073 40.909091 
251.098653 164.162926 40.909091 
242.341203 176.835351 40.909091 
232.905956 189.089438 40.909091 
222.824020 200.871741 40.909091 
212.132034 212.132034 40.909091 
200.871741 222.824020 40.909091 
189.089438 232.905956 40.909091 
176.835351 242.341203 40.909091 
164.162926 251.098653 40.909091 
151.128073 259.153054 40.909091 
137.788378 266.485202 40.909091 
124.202304 273.082016 40.909091 
110.428413 278.936490 40.909091 
96.524613 284.047530 40.909091 
82.547464 288.419687 40.909091 
68.551549 292.062810 40.909091 
54.588916 294.991611 40.909091 
40.708618 297.225181 40.909091 
26.956331 298.786473 40.909091 
13.374073 299.701742 40.909091 
0.000000 300.000000 40.909091 
297.000000 0.000000 40.909091 
296.704725 13.240333 40.909091 
295.798608 26.686768 40.909091 
294.252930 40.301531 40.909091 
292.041694 54.043027 40.909091 
289.142182 67.866033 40.909091 
[...]
<PointData  Vectors="sigma"> 
<DataArray  type="Float64"  Name="sigma" NumberOfComponents="6" format="ascii"> 
-0.000407   -0.000407   -0.000949   0.000000   0.000000   0.000268   
-0.000375   -0.000375   -0.000875   0.000000   0.000006   0.000255   
-0.000286   -0.000286   -0.000667   0.000000   0.000020   0.000211   
-0.000133   -0.000133   -0.000310   0.000000   0.000041   0.000113   
0.000078   0.000078   0.000181   0.000000   0.000069   -0.000034   
0.000328   0.000328   0.000765   0.000000   0.000103   -0.000218   
0.000595   0.000595   0.001389   0.000000   0.000141   -0.000424   
0.000851   0.000851   0.001985   0.000000   0.000176   -0.000635   
0.001059   0.001059   0.002471   0.000000   0.000204   -0.000824   
0.001182   0.001182   0.002757   0.000000   0.000217   -0.000958   
0.001180   0.001180   0.002752   0.000000   0.000214   -0.001001   
0.001019   0.001019   0.002377   0.000000   0.000202   -0.000920   
0.000675   0.000675   0.001574   0.000000   0.000194   -0.000690   
0.000138   0.000138   0.000322   0.000000   0.000212   -0.000304   
-0.000580   -0.000580   -0.001353   0.000000   0.000278   0.000227   
-0.001445   -0.001445   -0.003371   0.000000   0.000412   0.000869   
-0.002398   -0.002398   -0.005595   0.000000   0.000618   0.001569   
-0.003359   -0.003359   -0.007837   0.000000   0.000881   0.002268   
-0.004229   -0.004229   -0.009867   0.000000   0.001167   0.002907   
-0.004902   -0.004902   -0.011437   0.000000   0.001419   0.003436   
-0.005274   -0.005274   -0.012306   0.000000   0.001576   0.003818   
-0.005259   -0.005259   -0.012271   0.000000   0.001577   0.004036   
-0.004800   -0.004800   -0.011201   0.000000   0.001378   0.004084   
-0.003884   -0.003884   -0.009063   0.000000   0.000956   0.003973   
-0.002545   -0.002545   -0.005938   0.000000   0.000316   0.003721   
-0.000867   -0.000867   -0.002023   0.000000   -0.000506   0.003358   
0.001022   0.001022   0.002385   0.000000   -0.001450   0.002914   
0.002967   0.002967   0.006923   0.000000   -0.002437   0.002425   
0.004805   0.004805   0.011211   0.000000   -0.003391   0.001907   
0.006366   0.006366   0.014853   0.000000   -0.004210   0.001411   
0.007494   0.007494   0.017487   0.000000   -0.004654   0.000964   
0.008174   0.008174   0.019072   0.000000   -0.004863   0.000369   
0.008440   0.008440   0.019692   0.000000   -0.005156   0.000000   
-0.000138   -0.000138   -0.000321   0.000000   0.000001   0.000179   
-0.000086   -0.000086   -0.000201   0.000000   0.000006   0.000157   
-0.000014   -0.000014   -0.000033   0.000000   0.000015   0.000097   
0.000076   0.000076   0.000177   0.000000   0.000034   -0.000002   
0.000179   0.000179   0.000418   0.000000   0.000063   -0.000128   
0.000286   0.000286   0.000667   0.000000   0.000100   -0.000276   
0.000383   0.000383   0.000894   0.000000   0.000142   -0.000434   
0.000456   0.000456   0.001064   0.000000   0.000184   -0.000586   
0.000489   0.000489   0.001142   0.000000   0.000220   -0.000709   
0.000469   0.000469   0.001093   0.000000   0.000247   -0.000773   
0.000382   0.000382   0.000891   0.000000   0.000266   -0.000751   
0.000222   0.000222   0.000517   0.000000   0.000281   -0.000616   
-0.000015   -0.000015   -0.000035   0.000000   0.000298   -0.000350   
-0.000323   -0.000323   -0.000753   0.000000   0.000327   0.000049   
-0.000689   -0.000689   -0.001607   0.000000   0.000375   0.000566   
-0.001090   -0.001090   -0.002543   0.000000   0.000443   0.001172   
-0.001495   -0.001495   -0.003489   0.000000   0.000522   0.001822   
-0.001864   -0.001864   -0.004349   0.000000   0.000598   0.002464   
-0.002151   -0.002151   -0.005020   0.000000   0.000647   0.003044   
-0.002311   -0.002311   -0.005392   0.000000   0.000643   0.003517   
-0.002302   -0.002302   -0.005370   0.000000   0.000562   0.003846   
-0.002095   -0.002095   -0.004889   0.000000   0.000386   0.004011   
-0.001682   -0.001682   -0.003925   0.000000   0.000106   0.004006   
-0.001075   -0.001075   -0.002508   0.000000   -0.000277   0.003840   
-0.000311   -0.000311   -0.000726   0.000000   -0.000745   0.003535   
0.000552   0.000552   0.001289   0.000000   -0.001270   0.003121   
0.001445   0.001445   0.003371   0.000000   -0.001815   0.002637   
0.002287   0.002287   0.005337   0.000000   -0.002339   0.002105   
0.003022   0.003022   0.007052   0.000000   -0.002795   0.001556   
0.003645   0.003645   0.008506   0.000000   -0.002933   0.000999   
0.004079   0.004079   0.009517   0.000000   -0.002999   0.000453   
0.004228   0.004228   0.009865   0.000000   -0.003198   0.000000   
0.004079   0.004079   0.009517   0.000000   -0.002999   0.000453   
-0.000010   -0.000369   -0.001219   0.000145   0.000004   0.000188   
-0.000018   -0.000302   -0.001132   0.000004   0.000023   0.000186   
-0.000018   -0.000224   -0.000894   0.000030   0.000087   0.000151   
-0.000021   -0.000092   -0.000486   0.000013   0.000162   0.000074   
-0.000017   0.000085   0.000081   -0.000010   0.000225   -0.000042   
-0.000004   0.000300   0.000766   -0.000065   0.000280   -0.000187   
0.000025   0.000527   0.001512   -0.000146   0.000323   -0.000350   
0.000070   0.000738   0.002241   -0.000247   0.000348   -0.000515   
0.000133   0.000899   0.002861   -0.000353   0.000349   -0.000661   
0.000203   0.000975   0.003268   -0.000442   0.000322   -0.000761   
0.000264   0.000934   0.003353   -0.000482   0.000269   -0.000786   
0.000287   0.000756   0.003018   -0.000438   0.000196   -0.000707   
0.000235   0.000437   0.002187   -0.000280   0.000115   -0.000504   
0.000065   -0.000000   0.000824   0.000012   0.000042   -0.000163   
-0.000256   -0.000510   -0.001050   0.000436   -0.000008   0.000311   
-0.000746   -0.001027   -0.003355   0.000960   -0.000021   0.000899   
-0.001389   -0.001476   -0.005937   0.001526   0.000011   0.001561   
-0.002134   -0.001791   -0.008580   0.002053   0.000090   0.002244   
-0.002889   -0.001929   -0.011016   0.002458   0.000205   0.002882   
-0.003540   -0.001880   -0.012951   0.002670   0.000337   0.003406   
-0.003969   -0.001668   -0.014095   0.002649   0.000455   0.003757   
-0.004072   -0.001342   -0.014203   0.002393   0.000523   0.003893   
-0.003783   -0.000965   -0.013110   0.001941   0.000501   0.003796   
-0.003087   -0.000597   -0.010762   0.001359   0.000355   0.003484   
-0.002018   -0.000287   -0.007244   0.000732   0.000065   0.003002   
-0.000661   -0.000061   -0.002775   0.000146   -0.000369   0.002416   
0.000868   0.000067   0.002299   -0.000336   -0.000922   0.001808   
0.002430   0.000120   0.007557   -0.000644   -0.001547   0.001245   
0.003886   0.000089   0.012503   -0.000797   -0.002189   0.000803   
0.005038   0.000051   0.016695   -0.000660   -0.002735   0.000557   
0.005919   -0.000078   0.019744   -0.000742   -0.003085   0.000501   
0.006740   0.000046   0.021661   -0.000024   -0.003229   0.000406   
0.006581   -0.000169   0.022104   -0.002979   -0.003182   -0.000065   
0.000075   0.000043   0.000046   0.000029   -0.000056   0.000233   
0.000058   0.000039   0.000087   0.000001   -0.000153   0.000205   
0.000029   0.000063   0.000126   0.000003   -0.000233   0.000139   
-0.000012   0.000077   0.000160   -0.000009   -0.000285   0.000036   
-0.000058   0.000090   0.000190   -0.000025   -0.000297   -0.000099   
-0.000103   0.000095   0.000210   -0.000050   -0.000268   -0.000261   
-0.000142   0.000091   0.000218   -0.000079   -0.000194   -0.000441   
-0.000168   0.000072   0.000208   -0.000105   -0.000073   -0.000627   
-0.000177   0.000037   0.000175   -0.000120   0.000090   -0.000801   
-0.000169   -0.000017   0.000115   -0.000115   0.000288   -0.000937   
-0.000147   -0.000085   0.000021   -0.000078   0.000511   -0.001009   
-0.000118   -0.000159   -0.000109   -0.000002   0.000746   -0.000988   
-0.000094   -0.000228   -0.000279   0.000117   0.000979   -0.000851   
-0.000084   -0.000272   -0.000485   0.000272   0.001196   -0.000577   
-0.000097   -0.000275   -0.000721   0.000450   0.001381   -0.000159   
-0.000134   -0.000223   -0.000972   0.000628   0.001520   0.000399   
-0.000188   -0.000112   -0.001215   0.000779   0.001596   0.001080   
-0.000245   0.000050   -0.001421   0.000877   0.001592   0.001854   
-0.000288   0.000240   -0.001559   0.000903   0.001492   0.002679   
-0.000300   0.000427   -0.001599   0.000849   0.001281   0.003507   
-0.000271   0.000571   -0.001520   0.000722   0.000953   0.004280   
-0.000198   0.000639   -0.001310   0.000539   0.000505   0.004941   
-0.000088   0.000606   -0.000971   0.000326   -0.000052   0.005435   
0.000047   0.000464   -0.000521   0.000112   -0.000698   0.005714   
0.000188   0.000221   0.000010   -0.000078   -0.001402   0.005744   
0.000333   -0.000100   0.000590   -0.000219   -0.002125   0.005506   
0.000442   -0.000461   0.001170   -0.000311   -0.002822   0.005003   
0.000583   -0.000831   0.001739   -0.000308   -0.003458   0.004247   
0.000698   -0.001124   0.002318   -0.000306   -0.003928   0.003215   
0.000842   -0.001405   0.002761   -0.000184   -0.004219   0.002040   
0.000826   -0.001438   0.003362   -0.000551   -0.004324   0.000828   
0.000974   -0.001673   0.003957   0.003141   -0.004304   -0.000099   
0.000826   -0.001438   0.003362   -0.000551   -0.004324   0.000828   
0.000021   -0.000234   -0.000800   0.000144   0.000006   0.000073   
0.000022   -0.000070   -0.000700   0.000006   0.000036   0.000071   
0.000015   -0.000037   -0.000551   0.000009   0.000136   0.000046   
0.000015   0.000029   -0.000298   -0.000012   0.000246   -0.000007   
0.000010   0.000105   0.000040   -0.000024   0.000345   -0.000081   
0.000011   0.000198   0.000449   -0.000054   0.000435   -0.000173   
0.000016   0.000288   0.000894   -0.000094   0.000510   -0.000275   
0.000027   0.000362   0.001333   -0.000140   0.000561   -0.000377   
0.000042   0.000403   0.001711   -0.000182   0.000579   -0.000463   
0.000058   0.000397   0.001968   -0.000207   0.000554   -0.000514   
0.000065   0.000335   0.002044   -0.000202   0.000481   -0.000511   
0.000051   0.000214   0.001878   -0.000154   0.000358   -0.000432   
0.000002   0.000042   0.001426   -0.000053   0.000189   -0.000260   
-0.000098   -0.000166   0.000660   0.000103   -0.000015   0.000013   
-0.000258   -0.000386   -0.000415   0.000307   -0.000238   0.000391   
-0.000480   -0.000589   -0.001760   0.000542   -0.000461   0.000861   
-0.000754   -0.000745   -0.003295   0.000781   -0.000658   0.001396   
-0.001055   -0.000833   -0.004899   0.000991   -0.000808   0.001955   
-0.001344   -0.000840   -0.006416   0.001140   -0.000889   0.002483   
-0.001577   -0.000770   -0.007664   0.001203   -0.000892   0.002914   
-0.001704   -0.000636   -0.008462   0.001166   -0.000820   0.003188   
-0.001686   -0.000465   -0.008642   0.001033   -0.000694   0.003257   
-0.001500   -0.000287   -0.008086   0.000822   -0.000547   0.003100   
-0.001143   -0.000131   -0.006742   0.000564   -0.000423   0.002731   
-0.000640   -0.000017   -0.004645   0.000295   -0.000361   0.002198   
-0.000030   0.000043   -0.001922   0.000054   -0.000391   0.001580   
0.000632   0.000051   0.001219   -0.000143   -0.000521   0.000970   
0.001287   0.000017   0.004500   -0.000252   -0.000741   0.000455   
0.001865   -0.000048   0.007615   -0.000298   -0.001010   0.000140   
0.002258   -0.000121   0.010292   -0.000194   -0.001265   0.000023   
0.002704   -0.000158   0.012390   -0.000385   -0.001507   0.000210   
0.002949   -0.000176   0.013642   0.000007   -0.001576   0.000477   
0.004256   -0.000238   0.014423   -0.002503   -0.001473   -0.000096   
-0.000031   -0.000087   -0.000291   0.000041   -0.000103   0.000059   
-0.000029   -0.000096   -0.000206   -0.000002   -0.000264   0.000068   
-0.000011   -0.000023   -0.000042   -0.000003   -0.000393   0.000076   
0.000007   0.000056   0.000168   -0.000017   -0.000476   0.000079   
0.000033   0.000148   0.000415   -0.000035   -0.000493   0.000067   
0.000065   0.000240   0.000674   -0.000064   -0.000435   0.000032   
0.000102   0.000323   0.000918   -0.000096   -0.000298   -0.000035   
0.000138   0.000382   0.001110   -0.000127   -0.000082   -0.000141   
0.000167   0.000402   0.001209   -0.000147   0.000200   -0.000287   
0.000178   0.000370   0.001172   -0.000148   0.000525   -0.000469   
0.000158   0.000277   0.000960   -0.000116   0.000861   -0.000672   
0.000091   0.000123   0.000543   -0.000044   0.001169   -0.000869   
-0.000035   -0.000084   -0.000092   0.000071   0.001405   -0.001023   
-0.000229   -0.000324   -0.000933   0.000225   0.001533   -0.001091   
-0.000487   -0.000569   -0.001939   0.000405   0.001523   -0.001026   
-0.000796   -0.000789   -0.003038   0.000586   0.001359   -0.000786   
-0.001124   -0.000955   -0.004130   0.000744   0.001046   -0.000340   
-0.001430   -0.001050   -0.005097   0.000851   0.000605   0.000323   
-0.001667   -0.001064   -0.005812   0.000890   0.000073   0.001193   
-0.001790   -0.001000   -0.006162   0.000854   -0.000499   0.002228   
-0.001764   -0.000871   -0.006057   0.000747   -0.001056   0.003362   
-0.001571   -0.000695   -0.005446   0.000588   -0.001544   0.004502   
-0.001213   -0.000492   -0.004329   0.000399   -0.001918   0.005542   
-0.000711   -0.000279   -0.002758   0.000208   -0.002150   0.006367   
-0.000107   -0.000071   -0.000838   0.000036   -0.002231   0.006872   
0.000558   0.000122   0.001291   -0.000094   -0.002173   0.006977   
0.001209   0.000286   0.003457   -0.000184   -0.002010   0.006627   
0.001881   0.000424   0.005527   -0.000177   -0.001773   0.005810   
0.002405   0.000521   0.007269   -0.000218   -0.001509   0.004537   
0.002930   0.000631   0.008639   -0.000122   -0.001309   0.002978   
0.002681   0.000655   0.009417   -0.000583   -0.001119   0.001063   
0.003149   0.000497   0.009904   0.002028   -0.000971   -0.000218   
0.002681   0.000655   0.009417   -0.000583   -0.001119   0.001063   
0.000009   -0.000211   -0.000713   0.000180   0.000006   0.000008   
0.000015   0.000070   -0.000589   0.000007   0.000032   0.000009   
0.000002   0.000067   -0.000473   -0.000007   0.000123   -0.000002   
0.000008   0.000095   -0.000267   -0.000035   0.000232   -0.000029   
0.000007   0.000115   0.000003   -0.000040   0.000337   -0.000067   
0.000012   0.000141   0.000332   -0.000059   0.000444   -0.000118   
0.000017   0.000157   0.000692   -0.000074   0.000543   -0.000179   
0.000023   0.000157   0.001051   -0.000086   0.000628   -0.000246   
0.000026   0.000134   0.001369   -0.000086   0.000685   -0.000310   
0.000023   0.000086   0.001598   -0.000069   0.000701   -0.000361   
0.000008   0.000017   0.001689   -0.000031   0.000662   -0.000382   
-0.000024   -0.000068   0.001595   0.000030   0.000557   -0.000355   
-0.000076   -0.000157   0.001276   0.000108   0.000381   -0.000263   
-0.000148   -0.000239   0.000706   0.000196   0.000133   -0.000087   
-0.000237   -0.000302   -0.000120   0.000284   -0.000176   0.000185   
-0.000335   -0.000338   -0.001178   0.000360   -0.000527   0.000556   
-0.000430   -0.000345   -0.002413   0.000413   -0.000890   0.001015   
-0.000510   -0.000322   -0.003733   0.000436   -0.001226   0.001531   
-0.000560   -0.000275   -0.005014   0.000424   -0.001495   0.002057   
-0.000567   -0.000212   -0.006109   0.000381   -0.001659   0.002530   
-0.000521   -0.000143   -0.006861   0.000311   -0.001696   0.002879   
-0.000418   -0.000079   -0.007122   0.000227   -0.001603   0.003044   
-0.000263   -0.000028   -0.006776   0.000141   -0.001401   0.002990   
-0.000069   0.000005   -0.005763   0.000070   -0.001129   0.002713   
0.000144   0.000018   -0.004099   0.000019   -0.000837   0.002251   
0.000353   0.000013   -0.001877   -0.000003   -0.000573   0.001680   
0.000536   -0.000003   0.000733   -0.000012   -0.000374   0.001090   
0.000674   -0.000030   0.003494   0.000024   -0.000257   0.000588   
0.000750   -0.000049   0.006161   0.000028   -0.000211   0.000257   
0.000709   -0.000095   0.008465   0.000143   -0.000225   0.000104   
0.000807   -0.000054   0.010304   -0.000105   -0.000272   0.000302   
0.000593   -0.000193   0.011329   -0.000023   -0.000246   0.000512   
0.003739   -0.000167   0.012631   -0.002840   -0.000154   -0.000094   
0.000013   -0.000094   -0.000343   0.000060   -0.000131   0.000026   
0.000003   -0.000139   -0.000258   -0.000005   -0.000323   0.000045   
0.000010   -0.000063   -0.000066   -0.000004   -0.000477   0.000071   
0.000006   0.000009   0.000175   -0.000023   -0.000577   0.000099   
0.000009   0.000096   0.000463   -0.000046   -0.000602   0.000117   
0.000016   0.000184   0.000765   -0.000082   -0.000541   0.000114   
0.000030   0.000268   0.001050   -0.000125   -0.000384   0.000074   
0.000050   0.000336   0.001276   -0.000169   -0.000135   -0.000015   
0.000073   0.000373   0.001395   -0.000204   0.000191   -0.000161   
0.000091   0.000367   0.001358   -0.000219   0.000569   -0.000364   
0.000094   0.000309   0.001120   -0.000200   0.000957   -0.000614   
0.000067   0.000198   0.000648   -0.000135   0.001309   -0.000885   
-0.000005   0.000040   -0.000072   -0.000017   0.001574   -0.001138   
-0.000137   -0.000147   -0.001026   0.000150   0.001704   -0.001320   
-0.000333   -0.000338   -0.002170   0.000355   0.001665   -0.001372   
-0.000587   -0.000503   -0.003422   0.000574   0.001443   -0.001238   
-0.000875   -0.000619   -0.004673   0.000777   0.001041   -0.000868   
-0.001162   -0.000667   -0.005788   0.000932   0.000491   -0.000234   
-0.001404   -0.000647   -0.006625   0.001015   -0.000157   0.000665   
-0.001554   -0.000568   -0.007053   0.001012   -0.000839   0.001795   
-0.001573   -0.000450   -0.006963   0.000925   -0.001483   0.003086   
-0.001439   -0.000318   -0.006293   0.000772   -0.002018   0.004435   
-0.001147   -0.000195   -0.005037   0.000576   -0.002390   0.005712   
-0.000713   -0.000098   -0.003250   0.000370   -0.002562   0.006773   
-0.000175   -0.000038   -0.001048   0.000176   -0.002527   0.007484   
0.000431   -0.000013   0.001407   0.000024   -0.002309   0.007731   
0.001041   -0.000026   0.003919   -0.000091   -0.001951   0.007435   
0.001676   -0.000048   0.006302   -0.000105   -0.001520   0.006588   
0.002159   -0.000110   0.008307   -0.000181   -0.001103   0.005221   
0.002801   -0.000050   0.009979   -0.000025   -0.000768   0.003439   
0.002102   -0.000154   0.010632   -0.000816   -0.000508   0.001232   
0.002921   -0.000248   0.011068   0.001469   -0.000396   -0.000216   
0.002102   -0.000154   0.010632   -0.000816   -0.000508   0.001232   
0.000013   -0.000191   -0.000650   0.000206   0.000005   0.000009   
0.000026   0.000190   -0.000498   0.000012   0.000031   0.000010   
0.000006   0.000164   -0.000407   -0.000019   0.000113   0.000000   
0.000017   0.000162   -0.000233   -0.000052   0.000219   -0.000023   
0.000015   0.000137   -0.000008   -0.000053   0.000327   -0.000059   
0.000018   0.000110   0.000269   -0.000063   0.000441   -0.000108   
0.000017   0.000067   0.000572   -0.000062   0.000554   -0.000170   
0.000014   0.000008   0.000877   -0.000050   0.000658   -0.000241   
0.000002   -0.000068   0.001150   -0.000021   0.000738   -0.000316   
-0.000020   -0.000152   0.001352   0.000026   0.000779   -0.000383   
-0.000056   -0.000235   0.001443   0.000088   0.000764   -0.000426   
-0.000105   -0.000304   0.001380   0.000159   0.000676   -0.000426   
-0.000163   -0.000346   0.001129   0.000225   0.000506   -0.000359   
-0.000221   -0.000349   0.000665   0.000273   0.000251   -0.000204   
-0.000266   -0.000311   -0.000022   0.000289   -0.000082   0.000057   
-0.000283   -0.000235   -0.000915   0.000264   -0.000471   0.000431   
-0.000258   -0.000131   -0.001972   0.000195   -0.000884   0.000911   
-0.000184   -0.000015   -0.003119   0.000089   -0.001276   0.001466   
-0.000059   0.000094   -0.004252   -0.000040   -0.001599   0.002047   
0.000110   0.000183   -0.005244   -0.000171   -0.001808   0.002583   
0.000307   0.000238   -0.005956   -0.000283   -0.001874   0.002995   