<VTKFile type="UnstructuredGrid"  version="0.1"   > 
<UnstructuredGrid> 
<Piece  NumberOfPoints="  1000" NumberOfCells=" 729"> 
<Points> 
<DataArray  type="Float64"  NumberOfComponents="3"  format="ascii" > 
0.000000 0.000000 0.000000 
1.111111 0.000000 0.000000 
2.222222 0.000000 0.000000 
3.333333 0.000000 0.000000 
4.444444 0.000000 0.000000 
5.555556 0.000000 0.000000 
6.666667 0.000000 0.000000 
7.777778 0.000000 0.000000 
8.888889 0.000000 0.000000 
10.000000 0.000000 0.000000 
0.000000 1.111111 0.000000 
1.111111 1.111111 0.000000 
2.222222 1.111111 0.000000 
3.333333 1.111111 0.000000 
4.444444 1.111111 0.000000 
5.555556 1.111111 0.000000 
6.666667 1.111111 0.000000 
7.777778 1.111111 0.000000 
8.888889 1.111111 0.000000 
10.000000 1.111111 0.000000 
0.000000 2.222222 0.000000 
1.111111 2.222222 0.000000 
2.222222 2.222222 0.000000 
3.333333 2.222222 0.000000 
4.444444 2.222222 0.000000 
5.555556 2.222222 0.000000 
6.666667 2.222222 0.000000 
7.777778 2.222222 0.000000 
8.888889 2.222222 0.000000 
10.000000 2.222222 0.000000 
0.000000 3.333333 0.000000 
1.111111 3.333333 0.000000 
2.222222 3.333333 0.000000 
3.333333 3.333333 0.000000 
4.444444 3.333333 0.000000 
5.555556 3.333333 0.000000 
6.666667 3.333333 0.000000 
7.777778 3.333333 0.000000 
8.888889 3.333333 0.000000 
10.000000 3.333333 0.000000 
0.000000 4.444444 0.000000 
1.111111 4.444444 0.000000 
2.222222 4.444444 0.000000 
3.333333 4.444444 0.000000 
4.444444 4.444444 0.000000 
5.555556 4.444444 0.000000 
6.666667 4.444444 0.000000 
7.777778 4.444444 0.000000 
8.888889 4.444444 0.000000 
10.000000 4.444444 0.000000 
0.000000 5.555556 0.000000 
1.111111 5.555556 0.000000 
2.222222 5.555556 0.000000 
3.333333 5.555556 0.000000 
4.444444 5.555556 0.000000 
5.555556 5.555556 0.000000 
6.666667 5.555556 0.000000 
7.777778 5.555556 0.000000 
8.888889 5.555556 0.000000 
10.000000 5.555556 0.000000 
0.000000 6.666667 0.000000 
1.111111 6.666667 0.000000 
2.222222 6.666667 0.000000 
3.333333 6.666667 0.000000 
4.444444 6.666667 0.000000 
5.555556 6.666667 0.000000 
6.666667 6.666667 0.000000 
7.777778 6.666667 0.000000 
8.888889 6.666667 0.000000 
10.000000 6.666667 0.000000 
0.000000 7.777778 0.000000 
1.111111 7.777778 0.000000 
2.222222 7.777778 0.000000 
3.333333 7.777778 0.000000 
4.444444 7.777778 0.000000 
5.555556 7.777778 0.000000 
6.666667 7.777778 0.000000 
7.777778 7.777778 0.000000 
8.888889 7.777778 0.000000 
10.000000 7.777778 0.000000 
0.000000 8.888889 0.000000 
1.111111 8.888889 0.000000 
2.222222 8.888889 0.000000 
3.333333 8.888889 0.000000 
4.444444 8.888889 0.000000 
5.555556 8.888889 0.000000 
6.666667 8.888889 0.000000 
7.777778 8.888889 0.000000 
8.888889 8.888889 0.000000 
10.000000 8.888889 0.000000 
0.000000 10.000000 0.000000 
1.111111 10.000000 0.000000 
2.222222 10.000000 0.000000 
3.333333 10.000000 0.000000 
4.444444 10.000000 0.000000 
5.555556 10.000000 0.000000 
6.666667 10.000000 0.000000 
7.777778 10.000000 0.000000 
8.888889 10.000000 0.000000 
10.000000 10.000000 0.000000 
0.000000 0.000000 1.111111 
1.111111 0.000000 1.111111 
2.222222 0.000000 1.111111 
3.333333 0.000000 1.111111 
4.444444 0.000000 1.111111 
5.555556 0.000000 1.111111 
6.666667 0.000000 1.111111 
7.777778 0.000000 1.111111 
8.888889 0.000000 1.111111 
10.000000 0.000000 1.111111 
0.000000 1.111111 1.111111 
1.111111 1.111111 1.111111 
2.222222 1.111111 1.111111 
3.333333 1.111111 1.111111 
4.444444 1.111111 1.111111 
5.555556 1.111111 1.111111 
6.666667 1.111111 1.111111 
7.777778 1.111111 1.111111 
8.888889 1.111111 1.111111 
10.000000 1.111111 1.111111 
0.000000 2.222222 1.111111 
1.111111 2.222222 1.111111 
2.222222 2.222222 1.111111 
3.333333 2.222222 1.111111 
4.444444 2.222222 1.111111 
5.555556 2.222222 1.111111 
6.666667 2.222222 1.111111 
7.777778 2.222222 1.111111 
8.888889 2.222222 1.111111 
10.000000 2.222222 1.111111 
0.000000 3.333333 1.111111 
1.111111 3.333333 1.111111 
2.222222 3.333333 1.111111 
3.333333 3.333333 1.111111 
4.444444 3.333333 1.111111 
5.555556 3.333333 1.111111 
6.666667 3.333333 1.111111 
7.777778 3.333333 1.111111 
8.888889 3.333333 1.111111 
10.000000 3.333333 1.111111 
0.000000 4.444444 1.111111 
1.111111 4.444444 1.111111 
2.222222 4.444444 1.111111 
3.333333 4.444444 1.111111 
4.444444 4.444444 1.111111 
5.555556 4.444444 1.111111 
6.666667 4.444444 1.111111 
7.777778 4.444444 1.111111 
8.888889 4.444444 1.111111 
10.000000 4.444444 1.111111 
0.000000 5.555556 1.111111 
1.111111 5.555556 1.111111 
2.222222 5.555556 1.111111 
3.333333 5.555556 1.111111 
4.444444 5.555556 1.111111 
5.555556 5.555556 1.111111 
6.666667 5.555556 1.111111 
7.777778 5.555556 1.111111 
8.888889 5.555556 1.111111 
10.000000 5.555556 1.111111 
0.000000 6.666667 1.111111 
1.111111 6.666667 1.111111 
2.222222 6.666667 1.111111 
3.333333 6.666667 1.111111 
4.444444 6.666667 1.111111 
5.555556 6.666667 1.111111 
6.666667 6.666667 1.111111 
7.777778 6.666667 1.111111 
8.888889 6.666667 1.111111 
10.000000 6.666667 1.111111 
0.000000 7.777778 1.111111 
1.111111 7.777778 1.111111 
2.222222 7.777778 1.111111 
3.333333 7.777778 1.111111 
4.444444 7.777778 1.111111 
5.555556 7.777778 1.111111 
6.666667 7.777778 1.111111 
7.777778 7.777778 1.111111 
8.888889 7.777778 1.111111 
10.000000 7.777778 1.111111 
0.000000 8.888889 1.111111 
1.111111 8.888889 1.111111 
2.222222 8.888889 1.111111 
3.333333 8.888889 1.111111 
4.444444 8.888889 1.111111 
5.555556 8.888889 1.111111 
6.666667 8.888889 1.111111 
7.777778 8.888889 1.111111 
8.888889 8.888889 1.111111 
10.000000 8.888889 1.111111 
0.000000 10.000000 1.111111 
1.111111 10.000000 1.111111 
2.222222 10.000000 1.111111 
3.333333 10.000000 1.111111 
4.444444 10.000000 1.111111 
5.555556 10.000000 1.111111 
6.666667 10.000000 1.111111 
7.777778 10.000000 1.111111 
8.888889 10.000000 1.111111 
10.000000 10.000000 1.111111 
0.000000 0.000000 2.222222 
1.111111 0.000000 2.222222 
2.222222 0.000000 2.222222 
3.333333 0.000000 2.222222 
4.444444 0.000000 2.222222 
5.555556 0.000000 2.222222 
6.666667 0.000000 2.222222 
7.777778 0.000000 2.222222 
8.888889 0.000000 2.222222 
10.000000 0.000000 2.222222 
0.000000 1.111111 2.222222 
1.111111 1.111111 2.222222 
2.222222 1.111111 2.222222 
3.333333 1.111111 2.222222 
4.444444 1.111111 2.222222 
5.555556 1.111111 2.222222 
6.666667 1.111111 2.222222 
7.777778 1.111111 2.222222 
8.888889 1.111111 2.222222 
10.000000 1.111111 2.222222 
0.000000 2.222222 2.222222 
1.111111 2.222222 2.222222 
2.222222 2.222222 2.222222 
3.333333 2.222222 2.222222 
4.444444 2.222222 2.222222 
5.555556 2.222222 2.222222 
6.666667 2.222222 2.222222 
7.777778 2.222222 2.222222 
8.888889 2.222222 2.222222 
10.000000 2.222222 2.222222 
0.000000 3.333333 2.222222 
1.111111 3.333333 2.222222 
2.222222 3.333333 2.222222 
3.333333 3.333333 2.222222 
4.444444 3.333333 2.222222 
5.555556 3.333333 2.222222 
6.666667 3.333333 2.222222 
7.777778 3.333333 2.222222 
8.888889 3.333333 2.222222 
10.000000 3.333333 2.222222 
0.000000 4.444444 2.222222 
1.111111 4.444444 2.222222 
2.222222 4.444444 2.222222 
3.333333 4.444444 2.222222 
4.444444 4.444444 2.222222 
5.555556 4.444444 2.222222 
6.666667 4.444444 2.222222 
7.777778 4.444444 2.222222 
8.888889 4.444444 2.222222 
10.000000 4.444444 2.222222 
0.000000 5.555556 2.222222 
1.111111 5.555556 2.222222 
2.222222 5.555556 2.222222 
3.333333 5.555556 2.222222 
4.444444 5.555556 2.222222 
5.555556 5.555556 2.222222 
6.666667 5.555556 2.222222 
7.777778 5.555556 2.222222 
8.888889 5.555556 2.222222 
10.000000 5.555556 2.222222 
0.000000 6.666667 2.222222 
1.111111 6.666667 2.222222 
2.222222 6.666667 2.222222 
3.333333 6.666667 2.222222 
4.444444 6.666667 2.222222 
5.555556 6.666667 2.222222 
6.666667 6.666667 2.222222 
7.777778 6.666667 2.222222 
8.888889 6.666667 2.222222 
10.000000 6.666667 2.222222 
0.000000 7.777778 2.222222 
1.111111 7.777778 2.222222 
2.222222 7.777778 2.222222 
3.333333 7.777778 2.222222 
4.444444 7.777778 2.222222 
5.555556 7.777778 2.222222 
6.666667 7.777778 2.222222 
7.777778 7.777778 2.222222 
8.888889 7.777778 2.222222 
10.000000 7.777778 2.222222 
0.000000 8.888889 2.222222 
1.111111 8.888889 2.222222 
2.222222 8.888889 2.222222 
3.333333 8.888889 2.222222 
4.444444 8.888889 2.222222 
5.555556 8.888889 2.222222 
6.666667 8.888889 2.222222 
7.777778 8.888889 2.222222 
8.888889 8.888889 2.222222 
10.000000 8.888889 2.222222 
0.000000 10.000000 2.222222 
1.111111 10.000000 2.222222 
2.222222 10.000000 2.222222 
3.333333 10.000000 2.222222 
4.444444 10.000000 2.222222 
5.555556 10.000000 2.222222 
6.666667 10.000000 2.222222 
7.777778 10.000000 2.222222 
8.888889 10.000000 2.222222 
10.000000 10.000000 2.222222 
0.000000 0.000000 3.333333 
1.111111 0.000000 3.333333 
2.222222 0.000000 3.333333 
3.333333 0.000000 3.333333 
4.444444 0.000000 3.333333 
5.555556 0.000000 3.333333 
6.666667 0.000000 3.333333 
7.777778 0.000000 3.333333 
8.888889 0.000000 3.333333 
10.000000 0.000000 3.333333 
0.000000 1.111111 3.333333 
1.111111 1.111111 3.333333 
2.222222 1.111111 3.333333 
3.333333 1.111111 3.333333 
4.444444 1.111111 3.333333 
5.555556 1.111111 3.333333 
6.666667 1.111111 3.333333 
7.777778 1.111111 3.333333 
8.888889 1.111111 3.333333 
10.000000 1.111111 3.333333 
0.000000 2.222222 3.333333 
1.111111 2.222222 3.333333 
2.222222 2.222222 3.333333 
3.333333 2.222222 3.333333 
4.444444 2.222222 3.333333 
5.555556 2.222222 3.333333 
6.666667 2.222222 3.333333 
7.777778 2.222222 3.333333 
8.888889 2.222222 3.333333 
10.000000 2.222222 3.333333 
0.000000 3.333333 3.333333 
1.111111 3.333333 3.333333 
2.222222 3.333333 3.333333 
3.333333 3.333333 3.333333 
4.444444 3.333333 3.333333 
5.555556 3.333333 3.333333 
6.666667 3.333333 3.333333 
7.777778 3.333333 3.333333 
8.888889 3.333333 3.333333 
10.000000 3.333333 3.333333 
0.000000 4.444444 3.333333 
1.111111 4.444444 3.333333 
2.222222 4.444444 3.333333 
3.333333 4.444444 3.333333 
4.444444 4.444444 3.333333 
5.555556 4.444444 3.333333 
6.666667 4.444444 3.333333 
[...]
<PointData  Vectors="sigma"> 
<DataArray  type="Float64"  Name="sigma" NumberOfComponents="6" format="ascii"> 
4.610734   4.610734   10.758378   0.000000   1.530910   6.660293   
3.938905   3.938905   9.190778   0.000000   3.132216   6.337994   
6.007157   6.007157   14.016701   0.000000   5.101542   6.853959   
8.270784   8.270784   19.298496   0.000000   6.906612   6.235489   
9.841266   9.841266   22.962954   0.000000   8.081216   3.702840   
10.203839   10.203839   23.808957   0.000000   8.310286   -0.467282   
9.136380   9.136380   21.318221   0.000000   7.451854   -4.971909   
6.685554   6.685554   15.599627   0.000000   5.547091   -8.161356   
3.691620   3.691620   8.613779   0.000000   2.938225   -9.018571   
4.353151   4.353151   10.157352   0.000000   0.484462   -9.240587   
3.684053   3.684053   8.596125   0.000000   0.460801   5.377879   
2.867873   2.867873   6.691703   0.000000   1.522015   4.996759   
4.232042   4.232042   9.874765   0.000000   2.658747   5.433004   
5.804038   5.804038   13.542755   0.000000   3.791198   5.034189   
6.835226   6.835226   15.948860   0.000000   4.630347   3.058502   
7.040226   7.040226   16.427193   0.000000   4.868803   -0.263190   
6.304728   6.304728   14.711033   0.000000   4.362865   -3.865927   
4.640317   4.640317   10.827406   0.000000   3.167352   -6.372461   
2.711500   2.711500   6.326832   0.000000   1.608801   -7.016925   
3.617715   3.617715   8.441336   0.000000   -0.006651   -7.250847   
2.926135   2.926135   6.827648   0.000000   0.202026   4.637900   
2.428446   2.428446   5.666374   0.000000   0.867528   4.372208   
3.786050   3.786050   8.834117   0.000000   1.623508   4.842725   
5.304953   5.304953   12.378223   0.000000   2.388522   4.545508   
6.302254   6.302254   14.705260   0.000000   2.977683   2.816575   
6.498050   6.498050   15.162117   0.000000   3.175251   -0.147047   
5.812545   5.812545   13.562605   0.000000   2.845997   -3.390084   
4.217750   4.217750   9.841417   0.000000   2.068258   -5.669125   
2.273916   2.273916   5.305803   0.000000   1.084293   -6.208873   
2.683235   2.683235   6.260882   0.000000   0.204527   -6.234988   
2.450349   2.450349   5.717481   0.000000   0.119977   4.199917   
2.148452   2.148452   5.013055   0.000000   0.492787   4.098731   
3.584251   3.584251   8.363252   0.000000   0.936020   4.647876   
5.161373   5.161373   12.043203   0.000000   1.381666   4.453816   
6.210022   6.210022   14.490051   0.000000   1.712532   2.830062   
6.442899   6.442899   15.033431   0.000000   1.814310   -0.058252   
5.750937   5.750937   13.418854   0.000000   1.632777   -3.265379   
4.095526   4.095526   9.556227   0.000000   1.210715   -5.529583   
2.013573   2.013573   4.698337   0.000000   0.701975   -6.030073   
2.183210   2.183210   5.094158   0.000000   0.323125   -5.827063   
2.218295   2.218295   5.176021   0.000000   0.043659   3.999925   
2.014570   2.014570   4.700663   0.000000   0.164471   4.001468   
3.504017   3.504017   8.176039   0.000000   0.311044   4.616454   
5.132416   5.132416   11.975636   0.000000   0.455374   4.485418   
6.226739   6.226739   14.529058   0.000000   0.558256   2.895505   
6.483245   6.483245   15.127572   0.000000   0.587419   -0.010356   
5.779970   5.779970   13.486596   0.000000   0.529913   -3.264954   
4.072765   4.072765   9.503119   0.000000   0.400420   -5.565806   
1.906972   1.906972   4.449600   0.000000   0.249071   -6.048683   
1.984418   1.984418   4.630309   0.000000   0.150239   -5.715844   
2.218295   2.218295   5.176021   0.000000   -0.043659   3.999925   
2.014570   2.014570   4.700663   0.000000   -0.164471   4.001468   
3.504017   3.504017   8.176039   0.000000   -0.311044   4.616454   
5.132416   5.132416   11.975636   0.000000   -0.455374   4.485418   
6.226739   6.226739   14.529058   0.000000   -0.558256   2.895505   
6.483245   6.483245   15.127572   0.000000   -0.587419   -0.010356   
5.779970   5.779970   13.486596   0.000000   -0.529913   -3.264954   
4.072765   4.072765   9.503119   0.000000   -0.400420   -5.565806   
1.906972   1.906972   4.449600   0.000000   -0.249071   -6.048683   
1.984418   1.984418   4.630309   0.000000   -0.150239   -5.715844   
2.450349   2.450349   5.717481   0.000000   -0.119977   4.199917   
2.148452   2.148452   5.013055   0.000000   -0.492787   4.098731   
3.584251   3.584251   8.363252   0.000000   -0.936020   4.647876   
5.161373   5.161373   12.043203   0.000000   -1.381666   4.453816   
6.210022   6.210022   14.490051   0.000000   -1.712532   2.830062   
6.442899   6.442899   15.033431   0.000000   -1.814310   -0.058252   
5.750937   5.750937   13.418854   0.000000   -1.632777   -3.265379   
4.095526   4.095526   9.556227   0.000000   -1.210715   -5.529583   
2.013573   2.013573   4.698337   0.000000   -0.701975   -6.030073   
2.183210   2.183210   5.094158   0.000000   -0.323125   -5.827063   
2.926135   2.926135   6.827648   0.000000   -0.202026   4.637900   
2.428446   2.428446   5.666374   0.000000   -0.867528   4.372208   
3.786050   3.786050   8.834117   0.000000   -1.623508   4.842725   
5.304953   5.304953   12.378223   0.000000   -2.388522   4.545508   
6.302254   6.302254   14.705260   0.000000   -2.977683   2.816575   
6.498050   6.498050   15.162117   0.000000   -3.175251   -0.147047   
5.812545   5.812545   13.562605   0.000000   -2.845997   -3.390084   
4.217750   4.217750   9.841417   0.000000   -2.068258   -5.669125   
2.273916   2.273916   5.305803   0.000000   -1.084293   -6.208873   
2.683235   2.683235   6.260882   0.000000   -0.204527   -6.234988   
3.684053   3.684053   8.596125   0.000000   -0.460801   5.377879   
2.867873   2.867873   6.691703   0.000000   -1.522015   4.996759   
4.232042   4.232042   9.874765   0.000000   -2.658747   5.433004   
5.804038   5.804038   13.542755   0.000000   -3.791198   5.034189   
6.835226   6.835226   15.948860   0.000000   -4.630347   3.058502   
7.040226   7.040226   16.427193   0.000000   -4.868803   -0.263190   
6.304728   6.304728   14.711033   0.000000   -4.362865   -3.865927   
4.640317   4.640317   10.827406   0.000000   -3.167352   -6.372461   
2.711500   2.711500   6.326832   0.000000   -1.608801   -7.016925   
3.617715   3.617715   8.441336   0.000000   0.006651   -7.250847   
3.938905   3.938905   9.190778   0.000000   -3.132216   6.337994   
6.007157   6.007157   14.016701   0.000000   -5.101542   6.853959   
8.270784   8.270784   19.298496   0.000000   -6.906612   6.235489   
9.841266   9.841266   22.962954   0.000000   -8.081216   3.702840   
10.203839   10.203839   23.808957   0.000000   -8.310286   -0.467282   
9.136380   9.136380   21.318221   0.000000   -7.451854   -4.971909   
6.685554   6.685554   15.599627   0.000000   -5.547091   -8.161356   
3.691620   3.691620   8.613779   0.000000   -2.938225   -9.018571   
4.353151   4.353151   10.157352   0.000000   -0.484462   -9.240587   
3.691620   3.691620   8.613779   0.000000   -2.938225   -9.018571   
-1.296105   -2.043915   -0.879804   0.318891   -1.446982   0.980854   
1.966542   -0.159624   4.478916   0.628091   -0.316502   5.452944   
0.978476   -0.845849   6.787472   0.384114   0.041489   5.996927   
0.068646   -0.514119   11.717748   -0.026696   0.719939   5.984011   
-0.142653   0.576602   17.018421   -0.415268   1.625489   3.683275   
0.627243   1.690386   19.920470   -0.654339   2.099128   -0.975827   
1.959833   2.060291   18.293423   -0.798781   1.870802   -6.055997   
2.834792   1.312269   11.851638   -0.819971   0.885752   -8.204058   
0.504898   -0.602510   3.247571   -0.452116   -0.263417   -3.595040   
-3.766008   -4.035106   -7.556186   -0.464022   -2.797576   -2.024708   
-0.636139   -0.513793   0.044851   0.321236   -0.192430   -0.091510   
2.752087   1.661354   5.621872   0.512182   1.033393   3.594767   
2.781389   2.144964   8.854529   0.542172   2.129455   4.088414   
2.634245   3.207256   14.134872   0.350468   3.359816   4.191061   
2.806012   4.475038   19.272330   -0.003472   4.515038   2.738478   
3.362641   5.271827   21.548838   -0.389795   5.062222   -0.521650   
4.243375   5.233042   19.773190   -0.719669   4.509824   -4.055436   
4.265889   3.811258   13.201048   -0.855215   3.073255   -5.289382   
1.248257   0.957671   4.216849   -0.807401   1.212845   -1.523091   
-3.070461   -2.625361   -6.595847   -0.599594   -0.945984   0.193283   
-0.679994   -0.496351   -0.618963   0.227519   0.104929   -0.253711   
2.515199   1.669942   4.675151   0.482503   0.848336   2.980663   
2.600468   2.210197   7.745969   0.570165   1.601771   3.498983   
2.644504   3.366581   12.940476   0.497469   2.434246   3.794632   
2.963599   4.662070   18.058954   0.211056   3.164135   2.598877   
3.584623   5.466718   20.535184   -0.240459   3.459313   -0.313972   
4.279252   5.345073   18.794946   -0.653035   3.112638   -3.624081   
4.139755   3.821960   12.316131   -0.844423   2.237067   -4.784839   
1.288696   0.932493   3.476327   -0.700966   1.135821   -1.448924   
-3.113310   -2.968597   -7.295938   -0.471840   0.149458   0.374053   
-0.702101   -0.677232   -1.224630   0.172818   0.170448   -0.317982   
2.354491   1.477030   3.991642   0.345970   0.570918   2.744849   
2.510507   2.079590   7.129694   0.414222   0.994648   3.377939   
2.616045   3.313507   12.442910   0.362468   1.423782   3.849869   
2.997803   4.731841   17.776862   0.167221   1.752195   2.759659   
3.642218   5.622454   20.415823   -0.133637   1.862426   -0.213178   
4.312876   5.474217   18.713590   -0.421638   1.700566   -3.656210   
4.126831   3.817026   12.107867   -0.544963   1.299064   -4.889902   
1.429051   0.773136   3.110655   -0.397460   0.790679   -1.557965   
-3.150319   -3.526216   -7.854559   -0.267631   0.412352   0.308970   
-0.694823   -0.783684   -1.539078   0.120812   0.168173   -0.335306   
2.305247   1.361318   3.657897   0.146572   0.254176   2.677214   
2.490045   1.998995   6.868981   0.144330   0.365278   3.392324   
2.594545   3.273710   12.264393   0.102883   0.468663   3.957749   
2.954642   4.743991   17.696882   0.029163   0.533129   2.880955   
3.599464   5.679223   20.422248   -0.057506   0.546867   -0.176193   
4.293919   5.534944   18.748476   -0.129494   0.508489   -3.735712   
4.147349   3.829387   12.087579   -0.151349   0.421342   -5.023793   
1.549681   0.718701   3.004601   -0.098831   0.315018   -1.664845   
-3.100942   -3.734259   -8.044517   -0.098831   0.255936   0.223657   
-0.686572   -0.764432   -1.530827   0.079181   0.141233   -0.335306   
2.305717   1.362415   3.658368   -0.049309   -0.075666   2.677214   
2.487878   1.993938   6.866814   -0.112907   -0.258299   3.392324   
2.582886   3.246507   12.252734   -0.134484   -0.430054   3.957749   
2.926320   4.677906   17.668560   -0.094606   -0.555419   2.880955   
3.560425   5.588132   20.383209   0.009610   -0.600662   -0.176193   
4.261641   5.459629   18.716198   0.129069   -0.547198   -3.735712   
4.140257   3.812840   12.080487   0.187572   -0.390995   -5.023793   
1.583609   0.797866   3.038528   0.117442   -0.172882   -1.664845   
-3.005248   -3.510973   -7.948823   -0.012387   0.009120   0.223657   
-0.706400   -0.687263   -1.228929   0.065172   0.154527   -0.317982   
2.319672   1.395785   3.956823   -0.169756   -0.376103   2.744849   
2.463623   1.970196   7.082811   -0.250797   -0.832561   3.377939   
2.555622   3.172520   12.382487   -0.239174   -1.270952   3.849869   
2.914646   4.537810   17.693706   -0.115266   -1.606928   2.759659   
3.541680   5.387866   20.315285   0.092737   -1.735096   -0.213178   
4.230110   5.281094   18.630823   0.297358   -1.579713   -3.656210   
4.091395   3.734342   12.072431   0.369198   -1.166446   -4.889902   
1.481990   0.896661   3.163594   0.200049   -0.585691   -1.557965   
-2.931706   -3.016118   -7.635946   -0.029076   -0.010708   0.308970   
-0.812537   -0.805620   -0.751506   0.074477   0.271248   -0.253711   
2.305390   1.180386   4.465341   -0.131430   -0.635759   2.980663   
2.339654   1.601632   7.485155   -0.174734   -1.276181   3.498983   
2.347639   2.673896   12.643611   -0.100480   -1.960238   3.794632   
2.672964   3.983920   17.768319   0.044359   -2.576483   2.598877   
3.335165   4.884650   20.285726   0.213111   -2.809947   -0.313972   
4.051517   4.813691   18.567210   0.301897   -2.538538   -3.624081   
3.958591   3.399245   12.134967   0.280628   -1.836610   -4.784839   
1.182053   0.683661   3.369685   0.071714   -0.899499   -1.448924   
-3.043875   -2.806581   -7.226502   -0.136092   0.429816   0.374053   
-1.244640   -1.933630   -0.563651   0.221200   0.417445   -0.091510   
2.035301   -0.011145   4.905087   0.204503   -0.191251   3.594767   
1.725722   -0.318258   7.798862   0.288504   -0.357291   4.088414   
1.349692   0.209966   12.850319   0.362150   -0.736269   4.191061   
1.457359   1.328183   17.923678   0.405883   -1.217613   2.738478   
2.051693   2.212947   20.237889   0.301846   -1.566972   -0.521650   
3.064284   2.481828   18.594098   0.089530   -1.390533   -4.055436   
3.305406   1.570131   12.240565   -0.230344   -0.909694   -5.289382   
0.644570   -0.450931   3.613162   -0.386194   -0.489464   -1.523091   
-3.597181   -3.854372   -7.122567   -0.374287   0.680592   0.193283   
0.499580   -0.788322   3.850218   -0.260070   0.316502   1.799502   
2.963737   0.004977   7.638298   -0.548371   -0.041489   5.736428   
3.418458   0.921514   13.153382   -0.603770   -0.719939   6.908203   
2.722927   1.804708   18.246527   -0.530265   -1.625489   5.293821   
1.212624   1.941264   20.171348   -0.433163   -2.099128   0.930881   
-0.341731   1.073906   17.307039   -0.247550   -1.870802   -4.211507   
-1.246613   -0.436905   10.102465   0.115868   -0.885752   -7.479913   
-0.606702   -1.078910   2.771171   0.607219   0.263417   -8.468994   
-3.766008   -4.035106   -7.556186   0.464022   2.797576   -2.024708   
0.504898   -0.602510   3.247571   0.452116   0.263417   -3.595040   
-0.347090   -0.884013   -2.423802   0.761946   -0.694455   -0.499595   
1.383864   -0.518033   1.666633   1.005459   -0.605788   2.542267   
1.120544   -1.299256   3.765575   0.998400   -0.761718   4.949178   
-2.846170   -2.722415   7.200815   0.524024   -0.424951   5.577696   
-4.066820   -1.003048   17.444553   -0.466232   0.750842   4.769300   
-1.994772   1.771895   25.120193   -1.313719   2.699987   -2.846138   
0.540630   1.584734   20.208605   -1.880375   1.709701   -8.317779   
1.356248   0.122604   9.260883   -1.894778   0.405537   -6.919348   
1.135916   -0.788942   -1.267372   -1.566818   -0.476452   -0.668705   
-3.901172   -3.623617   -15.222991   -1.432682   -1.881630   0.827039   
-0.648149   -1.383766   -2.501500   0.535545   -0.965283   -1.085011   
1.353151   -0.351761   2.033504   1.011648   -0.235308   1.308977   
1.994902   -0.318520   5.126919   1.324683   0.206060   3.181843   
-0.529821   -1.005389   9.321629   1.199624   1.027767   3.315395   
-0.881893   0.854711   19.292882   0.428655   2.591855   2.706798   
1.440019   3.392162   26.965769   -0.867827   3.600517   -2.197851   
3.030504   2.930290   21.852462   -1.910527   2.979642   -5.727143   
2.625580   0.948057   10.656148   -2.171037   1.561797   -3.894861   
1.364270   -0.956036   -0.920354   -1.567008   0.065502   1.109502   
-4.250305   -5.005410   -15.586231   -1.252598   -1.682629   2.624694   
-0.382300   -1.218764   -2.200390   0.384544   -0.285567   -1.291462   
1.687154   0.066408   2.204426   0.791605   0.365850   0.682485   
2.680141   0.529543   5.397360   1.126343   1.005865   2.532052   
0.625542   0.311407   9.816463   1.145670   1.780466   2.911934   
0.930603   2.809647   20.665106   0.568133   2.629087   3.008139   
3.384129   5.639729   28.783987   -0.469123   2.979239   -1.900362   
4.609367   4.837636   23.416049   -1.399092   2.704209   -5.404677   
3.626908   2.040116   11.528855   -1.682416   1.809258   -3.518491   
1.968154   -0.761155   -0.464729   -1.157217   0.685391   1.097952   
-3.965225   -5.782237   -15.221578   -0.884134   -0.245121   2.757019   
-0.277127   -1.309842   -2.407685   0.294172   0.075496   -1.351357   
1.895357   0.077985   1.933385   0.559003   0.443960   0.541644   
2.972080   0.628253   5.021177   0.721004   0.839694   2.499387   
0.900438   0.606685   9.441936   0.676961   1.230170   3.175970   
1.226300   3.503282   20.639195   0.335738   1.509465   3.451072   
3.740585   6.617489   29.101882   -0.228340   1.583635   -1.807186   
5.043316   5.716258   23.787881   -0.764528   1.491469   -5.659787   
4.026398   2.478708   11.682207   -0.963664   1.120643   -3.848873   
2.325578   -0.815068   -0.402767   -0.636824   0.616865   0.868528   
-3.865468   -6.529771   -15.324884   -0.485428   0.268505   2.623785   
-0.201625   -1.381788   -2.568458   0.206815   0.225457   -1.343759   
2.028623   0.046500   1.754657   0.257674   0.299124   0.556527   
3.116670   0.617539   4.803242   0.247716   0.382796   2.594397   
0.934703   0.636246   9.194435   0.167348   0.445489   3.373161   
1.129742   3.630273   20.429836   0.042901   0.467909   3.650083   
3.629956   6.836930   28.990289   -0.095884   0.449595   -1.778496   
5.049350   5.950025   23.783555   -0.216640   0.421362   -5.821360   
4.142833   2.614226   11.693191   -0.257674   0.361935   -4.085512   
2.527834   -0.821683   -0.378014   -0.157913   0.285534   0.718744   
-3.766282   -6.799974   -15.380111   -0.157913   0.239910   2.507344   
-0.174875   -1.319373   -2.541709   0.141397   0.302945   -1.343759   
2.038919   0.070524   1.764953   -0.021244   0.098046   0.556527   
3.110157   0.602342   4.796729   -0.162309   -0.098589   2.594397   
0.880743   0.510338   9.140474   -0.245930   -0.283705   3.373161   
1.003531   3.335780   20.303624   -0.198135   -0.435832   3.650083   
3.464894   6.451785   28.825227   -0.004083   -0.505098   -1.778496   
4.914780   5.636029   23.648985   0.226660   -0.477268   -5.821360   
4.086703   2.483256   11.637061   0.316000   -0.308394   -4.085512   
2.570941   -0.721101   -0.334907   0.160481   -0.046543   0.718744   
-3.602788   -6.418487   -15.216616   0.009086   0.134652   2.507344   
-0.242257   -1.228478   -2.372815   0.120925   0.449537   -1.351357   
1.877802   0.037024   1.915831   -0.181881   -0.023634   0.541644   
2.900551   0.461352   4.949648   -0.412891   -0.431678   2.499387   
0.712841   0.168960   9.254339   -0.493461   -0.836587   3.175970   
0.872819   2.678495   20.285715   -0.305333   -1.177577   3.451072   
3.293207   5.573607   28.654504   0.130110   -1.313550   -1.807186   
4.675880   4.858909   23.420446   0.581111   -1.253276   -5.659787   
3.869049   2.111559   11.524858   0.686700   -0.855137   -3.848873   
2.429267   -0.573126   -0.299078   0.244920   -0.231831   0.868528   
-3.434812   -5.524908   -14.894228   -0.028164   0.316119   2.623785   
-0.379367   -1.211918   -2.197456   0.178983   0.747220   -1.291462   
1.533294   -0.292599   2.050566   -0.175256   0.078117   0.682485   
2.356280   -0.226133   5.073499   -0.410942   -0.277391   2.532052   
0.151464   -0.794777   9.342384   -0.410658   -0.712486   2.911934   
0.353957   1.464139   20.088460   -0.074048   -1.269529   3.008139   
2.738627   4.133560   28.138486   0.410155   -1.594984   -1.900362   
4.052861   3.539121   22.859543   0.758113   -1.443624   -5.404677   
3.321226   1.326858   11.223173   0.673151   -0.910816   -3.518491   
2.039100   -0.595616   -0.393784   0.001806   -0.152817   1.097952   
-3.404602   -4.474116   -14.660955   -0.312603   0.981342   2.757019   
-0.425384   -0.863981   -2.278735   0.299928   0.479900   -1.085011   
1.315406   -0.439833   1.995758   0.019086   0.124196   1.308977   
1.816042   -0.735862   4.948058   -0.026310   0.256263   3.181843   
-0.752443   -1.524839   9.099007   0.235637   0.229394   3.315395   
-1.082536   0.386543   19.092239   0.581127   -0.461000   2.706798   
1.419159   3.343489   26.944910   0.909338   -0.776060   -2.197851   