<VTKFile type="UnstructuredGrid"  version="0.1"   > 
<UnstructuredGrid> 
<Piece  NumberOfPoints="  12" NumberOfCells=" 2"> 
<Points> 
<DataArray  type="Float64"  NumberOfComponents="3"  format="ascii" > 
0.000000 0.000000 0.000000 
5.000000 0.000000 0.000000 
10.000000 0.000000 0.000000 
0.000000 4.000000 0.000000 
5.000000 4.000000 0.000000 
10.000000 4.000000 0.000000 
0.000000 0.000000 2.000000 
5.000000 0.000000 2.000000 
10.000000 0.000000 2.000000 
0.000000 4.000000 2.000000 
5.000000 4.000000 2.000000 
10.000000 4.000000 2.000000 
</DataArray> 
</Points> 
<Cells> 
<DataArray  type="Int32"  Name="connectivity"  format="ascii"> 
0 1 4 3 6 7 10 9 
1 2 5 4 7 8 11 10 
</DataArray> 
<DataArray  type="Int32"  Name="offsets"  format="ascii"> 
8 
16 
</DataArray> 
<DataArray  type="UInt8"  Name="types"  format="ascii"> 
12 
12 
</DataArray> 
</Cells> 
<PointData  Vectors="sigma"> 
<DataArray  type="Float64"  Name="sigma" NumberOfComponents="3" format="ascii"> 
0.000000   0.000000   0.000000   
0.000000   0.000000   0.000000   
0.000000   0.000000   0.000000   
0.000000   0.000000   0.000000   
0.000000   0.000000   0.000000   
0.000000   0.000000   0.000000   
0.000000   0.000000   0.000000   
0.000000   0.000000   0.000000   
0.000000   0.000000   0.000000   
0.000000   0.000000   0.000000   
0.000000   0.000000   0.000000   
0.000000   0.000000   0.000000   
</DataArray> 
<DataArray  type="Float64"  Name="U" NumberOfComponents="3" format="ascii"> 
0.000000   0.000000   0.000000   
-0.009195   -0.000463   -0.026237   
-0.012299   -0.000024   -0.083221   
0.000000   0.000000   0.000000   
-0.009195   0.000463   -0.026237   
-0.012299   0.000024   -0.083221   
0.000000   0.000000   0.000000   
0.009195   0.000463   -0.026237   
0.012299   0.000024   -0.083221   
0.000000   0.000000   0.000000   
0.009195   -0.000463   -0.026237   
0.012299   -0.000024   -0.083221   
</DataArray> 
</PointData> 
</Piece> 
</UnstructuredGrid> 
</VTKFile> 
