<VTKFile type="UnstructuredGrid"  version="0.1"   > 
<UnstructuredGrid> 
<Piece  NumberOfPoints="  1922" NumberOfCells=" 1830"> 
<Points> 
<DataArray  type="Float64"  NumberOfComponents="3"  format="ascii" > 
0.000000 0.000000 0.0 
0.033333 0.000000 0.0 
0.066667 0.000000 0.0 
0.100000 0.000000 0.0 
0.133333 0.000000 0.0 
0.166667 0.000000 0.0 
0.200000 0.000000 0.0 
0.233333 0.000000 0.0 
0.266667 0.000000 0.0 
0.300000 0.000000 0.0 
0.333333 0.000000 0.0 
0.366667 0.000000 0.0 
0.400000 0.000000 0.0 
0.433333 0.000000 0.0 
0.466667 0.000000 0.0 
0.500000 0.000000 0.0 
0.533333 0.000000 0.0 
0.566667 0.000000 0.0 
0.600000 0.000000 0.0 
0.633333 0.000000 0.0 
0.666667 0.000000 0.0 
0.700000 0.000000 0.0 
0.733333 0.000000 0.0 
0.766667 0.000000 0.0 
0.800000 0.000000 0.0 
0.833333 0.000000 0.0 
0.866667 0.000000 0.0 
0.900000 0.000000 0.0 
0.933333 0.000000 0.0 
0.966667 0.000000 0.0 
1.000000 0.000000 0.0 
0.000000 0.032787 0.0 
0.033333 0.032787 0.0 
0.066667 0.032787 0.0 
0.100000 0.032787 0.0 
0.133333 0.032787 0.0 
0.166667 0.032787 0.0 
0.200000 0.032787 0.0 
0.233333 0.032787 0.0 
0.266667 0.032787 0.0 
0.300000 0.032787 0.0 
0.333333 0.032787 0.0 
0.366667 0.032787 0.0 
0.400000 0.032787 0.0 
0.433333 0.032787 0.0 
0.466667 0.032787 0.0 
0.500000 0.032787 0.0 
0.533333 0.032787 0.0 
0.566667 0.032787 0.0 
0.600000 0.032787 0.0 
0.633333 0.032787 0.0 
0.666667 0.032787 0.0 
0.700000 0.032787 0.0 
0.733333 0.032787 0.0 
0.766667 0.032787 0.0 
0.800000 0.032787 0.0 
0.833333 0.032787 0.0 
0.866667 0.032787 0.0 
0.900000 0.032787 0.0 
0.933333 0.032787 0.0 
0.966667 0.032787 0.0 
1.000000 0.032787 0.0 
0.000000 0.065574 0.0 
0.033333 0.065574 0.0 
0.066667 0.065574 0.0 
0.100000 0.065574 0.0 
0.133333 0.065574 0.0 
0.166667 0.065574 0.0 
0.200000 0.065574 0.0 
0.233333 0.065574 0.0 
0.266667 0.065574 0.0 
0.300000 0.065574 0.0 
0.333333 0.065574 0.0 
0.366667 0.065574 0.0 
0.400000 0.065574 0.0 
0.433333 0.065574 0.0 
0.466667 0.065574 0.0 
0.500000 0.065574 0.0 
0.533333 0.065574 0.0 
0.566667 0.065574 0.0 
0.600000 0.065574 0.0 
0.633333 0.065574 0.0 
0.666667 0.065574 0.0 
0.700000 0.065574 0.0 
0.733333 0.065574 0.0 
0.766667 0.065574 0.0 
0.800000 0.065574 0.0 
0.833333 0.065574 0.0 
0.866667 0.065574 0.0 
0.900000 0.065574 0.0 
0.933333 0.065574 0.0 
0.966667 0.065574 0.0 
1.000000 0.065574 0.0 
0.000000 0.098361 0.0 
0.033333 0.098361 0.0 
0.066667 0.098361 0.0 
0.100000 0.098361 0.0 
0.133333 0.098361 0.0 
0.166667 0.098361 0.0 
0.200000 0.098361 0.0 
0.233333 0.098361 0.0 
0.266667 0.098361 0.0 
0.300000 0.098361 0.0 
0.333333 0.098361 0.0 
0.366667 0.098361 0.0 
0.400000 0.098361 0.0 
0.433333 0.098361 0.0 
0.466667 0.098361 0.0 
0.500000 0.098361 0.0 
0.533333 0.098361 0.0 
0.566667 0.098361 0.0 
0.600000 0.098361 0.0 
0.633333 0.098361 0.0 
0.666667 0.098361 0.0 
0.700000 0.098361 0.0 
0.733333 0.098361 0.0 
0.766667 0.098361 0.0 
0.800000 0.098361 0.0 
0.833333 0.098361 0.0 
0.866667 0.098361 0.0 
0.900000 0.098361 0.0 
0.933333 0.098361 0.0 
0.966667 0.098361 0.0 
1.000000 0.098361 0.0 
0.000000 0.131148 0.0 
0.033333 0.131148 0.0 
0.066667 0.131148 0.0 
0.100000 0.131148 0.0 
0.133333 0.131148 0.0 
0.166667 0.131148 0.0 
0.200000 0.131148 0.0 
0.233333 0.131148 0.0 
0.266667 0.131148 0.0 
0.300000 0.131148 0.0 
0.333333 0.131148 0.0 
0.366667 0.131148 0.0 
0.400000 0.131148 0.0 
0.433333 0.131148 0.0 
0.466667 0.131148 0.0 
0.500000 0.131148 0.0 
0.533333 0.131148 0.0 
0.566667 0.131148 0.0 
0.600000 0.131148 0.0 
0.633333 0.131148 0.0 
0.666667 0.131148 0.0 
0.700000 0.131148 0.0 
0.733333 0.131148 0.0 
0.766667 0.131148 0.0 
0.800000 0.131148 0.0 
0.833333 0.131148 0.0 
0.866667 0.131148 0.0 
0.900000 0.131148 0.0 
0.933333 0.131148 0.0 
0.966667 0.131148 0.0 
1.000000 0.131148 0.0 
0.000000 0.163934 0.0 
0.033333 0.163934 0.0 
0.066667 0.163934 0.0 
0.100000 0.163934 0.0 
0.133333 0.163934 0.0 
0.166667 0.163934 0.0 
0.200000 0.163934 0.0 
0.233333 0.163934 0.0 
0.266667 0.163934 0.0 
0.300000 0.163934 0.0 
0.333333 0.163934 0.0 
0.366667 0.163934 0.0 
0.400000 0.163934 0.0 
0.433333 0.163934 0.0 
0.466667 0.163934 0.0 
0.500000 0.163934 0.0 
0.533333 0.163934 0.0 
0.566667 0.163934 0.0 
0.600000 0.163934 0.0 
0.633333 0.163934 0.0 
0.666667 0.163934 0.0 
0.700000 0.163934 0.0 
0.733333 0.163934 0.0 
0.766667 0.163934 0.0 
0.800000 0.163934 0.0 
0.833333 0.163934 0.0 
0.866667 0.163934 0.0 
0.900000 0.163934 0.0 
0.933333 0.163934 0.0 
0.966667 0.163934 0.0 
1.000000 0.163934 0.0 
0.000000 0.196721 0.0 
0.033333 0.196721 0.0 
0.066667 0.196721 0.0 
0.100000 0.196721 0.0 
0.133333 0.196721 0.0 
0.166667 0.196721 0.0 
0.200000 0.196721 0.0 
0.233333 0.196721 0.0 
0.266667 0.196721 0.0 
0.300000 0.196721 0.0 
0.333333 0.196721 0.0 
0.366667 0.196721 0.0 
0.400000 0.196721 0.0 
0.433333 0.196721 0.0 
0.466667 0.196721 0.0 
0.500000 0.196721 0.0 
0.533333 0.196721 0.0 
0.566667 0.196721 0.0 
0.600000 0.196721 0.0 
0.633333 0.196721 0.0 
0.666667 0.196721 0.0 
0.700000 0.196721 0.0 
0.733333 0.196721 0.0 
0.766667 0.196721 0.0 
0.800000 0.196721 0.0 
0.833333 0.196721 0.0 
0.866667 0.196721 0.0 
0.900000 0.196721 0.0 
0.933333 0.196721 0.0 
0.966667 0.196721 0.0 
1.000000 0.196721 0.0 
0.000000 0.229508 0.0 
0.033333 0.229508 0.0 
0.066667 0.229508 0.0 
0.100000 0.229508 0.0 
0.133333 0.229508 0.0 
0.166667 0.229508 0.0 
0.200000 0.229508 0.0 
0.233333 0.229508 0.0 
0.266667 0.229508 0.0 
0.300000 0.229508 0.0 
0.333333 0.229508 0.0 
0.366667 0.229508 0.0 
0.400000 0.229508 0.0 
0.433333 0.229508 0.0 
0.466667 0.229508 0.0 
0.500000 0.229508 0.0 
0.533333 0.229508 0.0 
0.566667 0.229508 0.0 
0.600000 0.229508 0.0 
0.633333 0.229508 0.0 
0.666667 0.229508 0.0 
0.700000 0.229508 0.0 
0.733333 0.229508 0.0 
0.766667 0.229508 0.0 
0.800000 0.229508 0.0 
0.833333 0.229508 0.0 
0.866667 0.229508 0.0 
0.900000 0.229508 0.0 
0.933333 0.229508 0.0 
0.966667 0.229508 0.0 
1.000000 0.229508 0.0 
0.000000 0.262295 0.0 
0.033333 0.262295 0.0 
0.066667 0.262295 0.0 
0.100000 0.262295 0.0 
0.133333 0.262295 0.0 
0.166667 0.262295 0.0 
0.200000 0.262295 0.0 
0.233333 0.262295 0.0 
0.266667 0.262295 0.0 
0.300000 0.262295 0.0 
0.333333 0.262295 0.0 
0.366667 0.262295 0.0 
0.400000 0.262295 0.0 
0.433333 0.262295 0.0 
0.466667 0.262295 0.0 
0.500000 0.262295 0.0 
0.533333 0.262295 0.0 
0.566667 0.262295 0.0 
0.600000 0.262295 0.0 
0.633333 0.262295 0.0 
0.666667 0.262295 0.0 
0.700000 0.262295 0.0 
0.733333 0.262295 0.0 
0.766667 0.262295 0.0 
0.800000 0.262295 0.0 
0.833333 0.262295 0.0 
0.866667 0.262295 0.0 
0.900000 0.262295 0.0 
0.933333 0.262295 0.0 
0.966667 0.262295 0.0 
1.000000 0.262295 0.0 
0.000000 0.295082 0.0 
0.033333 0.295082 0.0 
0.066667 0.295082 0.0 
0.100000 0.295082 0.0 
0.133333 0.295082 0.0 
0.166667 0.295082 0.0 
0.200000 0.295082 0.0 
0.233333 0.295082 0.0 
0.266667 0.295082 0.0 
0.300000 0.295082 0.0 
0.333333 0.295082 0.0 
0.366667 0.295082 0.0 
0.400000 0.295082 0.0 
0.433333 0.295082 0.0 
0.466667 0.295082 0.0 
0.500000 0.295082 0.0 
0.533333 0.295082 0.0 
0.566667 0.295082 0.0 
0.600000 0.295082 0.0 
0.633333 0.295082 0.0 
0.666667 0.295082 0.0 
0.700000 0.295082 0.0 
0.733333 0.295082 0.0 
0.766667 0.295082 0.0 
0.800000 0.295082 0.0 
0.833333 0.295082 0.0 
0.866667 0.295082 0.0 
0.900000 0.295082 0.0 
0.933333 0.295082 0.0 
0.966667 0.295082 0.0 
1.000000 0.295082 0.0 
0.000000 0.327869 0.0 
0.033333 0.327869 0.0 
0.066667 0.327869 0.0 
0.100000 0.327869 0.0 
0.133333 0.327869 0.0 
0.166667 0.327869 0.0 
0.200000 0.327869 0.0 
0.233333 0.327869 0.0 
0.266667 0.327869 0.0 
0.300000 0.327869 0.0 
0.333333 0.327869 0.0 
0.366667 0.327869 0.0 
0.400000 0.327869 0.0 
0.433333 0.327869 0.0 
0.466667 0.327869 0.0 
0.500000 0.327869 0.0 
0.533333 0.327869 0.0 
0.566667 0.327869 0.0 
0.600000 0.327869 0.0 
0.633333 0.327869 0.0 
0.666667 0.327869 0.0 
0.700000 0.327869 0.0 
0.733333 0.327869 0.0 
0.766667 0.327869 0.0 
0.800000 0.327869 0.0 
0.833333 0.327869 0.0 
0.866667 0.327869 0.0 
0.900000 0.327869 0.0 
0.933333 0.327869 0.0 
0.966667 0.327869 0.0 
1.000000 0.327869 0.0 
0.000000 0.360656 0.0 
0.033333 0.360656 0.0 
0.066667 0.360656 0.0 
0.100000 0.360656 0.0 
0.133333 0.360656 0.0 
0.166667 0.360656 0.0 
0.200000 0.360656 0.0 
0.233333 0.360656 0.0 
0.266667 0.360656 0.0 
0.300000 0.360656 0.0 
0.333333 0.360656 0.0 
0.366667 0.360656 0.0 
0.400000 0.360656 0.0 
0.433333 0.360656 0.0 
0.466667 0.360656 0.0 
0.500000 0.360656 0.0 
0.533333 0.360656 0.0 
0.566667 0.360656 0.0 
0.600000 0.360656 0.0 
0.633333 0.360656 0.0 
0.666667 0.360656 0.0 
0.700000 0.360656 0.0 
0.733333 0.360656 0.0 
0.766667 0.360656 0.0 
0.800000 0.360656 0.0 
0.833333 0.360656 0.0 
0.866667 0.360656 0.0 
0.900000 0.360656 0.0 
0.933333 0.360656 0.0 
0.966667 0.360656 0.0 
1.000000 0.360656 0.0 
0.000000 0.393443 0.0 
0.033333 0.393443 0.0 
0.066667 0.393443 0.0 
0.100000 0.393443 0.0 
0.133333 0.393443 0.0 
0.166667 0.393443 0.0 
0.200000 0.393443 0.0 
0.233333 0.393443 0.0 
0.266667 0.393443 0.0 
0.300000 0.393443 0.0 
0.333333 0.393443 0.0 
0.366667 0.393443 0.0 
0.400000 0.393443 0.0 
0.433333 0.393443 0.0 
0.466667 0.393443 0.0 
0.500000 0.393443 0.0 
0.533333 0.393443 0.0 
0.566667 0.393443 0.0 
0.600000 0.393443 0.0 
0.633333 0.393443 0.0 
0.666667 0.393443 0.0 
0.700000 0.393443 0.0 
0.733333 0.393443 0.0 
0.766667 0.393443 0.0 
0.800000 0.393443 0.0 
0.833333 0.393443 0.0 
0.866667 0.393443 0.0 
0.900000 0.393443 0.0 
0.933333 0.393443 0.0 
0.966667 0.393443 0.0 
1.000000 0.393443 0.0 
0.000000 0.426230 0.0 
0.033333 0.426230 0.0 
0.066667 0.426230 0.0 
0.100000 0.426230 0.0 
0.133333 0.426230 0.0 
0.166667 0.426230 0.0 
0.200000 0.426230 0.0 
0.233333 0.426230 0.0 
0.266667 0.426230 0.0 
0.300000 0.426230 0.0 
0.333333 0.426230 0.0 
0.366667 0.426230 0.0 
0.400000 0.426230 0.0 
0.433333 0.426230 0.0 
0.466667 0.426230 0.0 
0.500000 0.426230 0.0 
0.533333 0.426230 0.0 
0.566667 0.426230 0.0 
0.600000 0.426230 0.0 
0.633333 0.426230 0.0 
0.666667 0.426230 0.0 
0.700000 0.426230 0.0 
[...]
<PointData  Vectors="sigma"> 
<DataArray  type="Float64"  Name="sigma" NumberOfComponents="3" format="ascii"> 
0.002407   0.974872   0.003038   
-0.003004   0.959146   0.003287   
-0.011224   0.950157   0.003499   
-0.021782   0.947243   0.003660   
-0.034148   0.949605   0.003757   
-0.047758   0.956354   0.003782   
-0.062031   0.966543   0.003731   
-0.076389   0.979201   0.003602   
-0.090273   0.993362   0.003393   
-0.103153   1.008089   0.003107   
-0.114549   1.022503   0.002748   
-0.124038   1.035797   0.002323   
-0.131269   1.047263   0.001839   
-0.135972   1.056307   0.001306   
-0.137969   1.062469   0.000736   
-0.137180   1.065433   0.000143   
-0.133627   1.065043   -0.000459   
-0.127436   1.061305   -0.001056   
-0.118838   1.054396   -0.001631   
-0.108161   1.044657   -0.002170   
-0.095827   1.032590   -0.002658   
-0.082333   1.018848   -0.003083   
-0.068246   1.004215   -0.003434   
-0.054180   0.989587   -0.003701   
-0.040775   0.975948   -0.003880   
-0.028680   0.964338   -0.003967   
-0.018518   0.955819   -0.003964   
-0.010865   0.951436   -0.003878   
-0.006213   0.952175   -0.003717   
-0.004943   0.958915   -0.003498   
0.002653   0.976638   -0.003242   
0.001455   0.971021   0.004463   
-0.003927   0.955598   0.007947   
-0.012104   0.947051   0.011024   
-0.022607   0.944682   0.013592   
-0.034910   0.947660   0.015580   
-0.048451   0.955071   0.016943   
-0.062653   0.965943   0.017656   
-0.076940   0.979285   0.017718   
-0.090754   0.994113   0.017143   
-0.103567   1.009475   0.015962   
-0.114901   1.024472   0.014223   
-0.124333   1.038283   0.011987   
-0.131514   1.050185   0.009330   
-0.136174   1.059571   0.006342   
-0.138137   1.065968   0.003123   
-0.137322   1.069052   -0.000219   
-0.133753   1.068659   -0.003567   
-0.127558   1.064793   -0.006804   
-0.118966   1.057631   -0.009812   
-0.108307   1.047520   -0.012475   
-0.096001   1.034970   -0.014689   
-0.082547   1.020646   -0.016359   
-0.068511   1.005350   -0.017406   
-0.054505   0.989998   -0.017770   
-0.041171   0.975597   -0.017414   
-0.029154   0.963215   -0.016325   
-0.019077   0.953945   -0.014522   
-0.011515   0.948867   -0.012053   
-0.006958   0.949002   -0.009003   
-0.005785   0.955272   -0.005494   
0.001677   0.972683   -0.004720   
0.000385   0.963608   0.005878   
-0.005059   0.948756   0.012656   
-0.013321   0.941031   0.018643   
-0.023928   0.939668   0.023653   
-0.036346   0.943783   0.027556   
-0.050010   0.952410   0.030272   
-0.064339   0.964537   0.031761   
-0.078753   0.979137   0.032020   
-0.092690   0.995193   0.031079   
-0.105619   1.011720   0.028998   
-0.117057   1.027791   0.025867   
-0.126576   1.042557   0.021804   
-0.133822   1.055266   0.016952   
-0.138523   1.065287   0.011479   
-0.140498   1.072125   0.005576   
-0.139664   1.075439   -0.000553   
-0.136044   1.075051   -0.006689   
-0.129766   1.070962   -0.012608   
-0.121062   1.063348   -0.018088   
-0.110265   1.052564   -0.022915   
-0.097800   1.039137   -0.026889   
-0.084172   1.023754   -0.029832   
-0.069953   1.007246   -0.031596   
-0.055766   0.990567   -0.032069   
-0.042260   0.974767   -0.031179   
-0.030093   0.960962   -0.028904   
-0.019901   0.950300   -0.025275   
-0.012270   0.943924   -0.020384   
-0.007706   0.942922   -0.014388   
-0.006603   0.948287   -0.007516   
0.000584   0.965055   -0.006206   
-0.000826   0.952488   0.007305   
-0.006414   0.938507   0.017491   
-0.014884   0.932012   0.026473   
-0.025744   0.932141   0.033986   
-0.038449   0.937929   0.039850   
-0.052419   0.948340   0.043950   
-0.067066   0.962306   0.046234   
-0.081800   0.978747   0.046700   
-0.096049   0.996599   0.045391   
-0.109274   1.014834   0.042397   
-0.120980   1.032483   0.037851   
-0.130729   1.048652   0.031923   
-0.138158   1.062552   0.024827   
-0.142983   1.073514   0.016811   
-0.145016   1.081009   0.008153   
-0.144170   1.084670   -0.000840   
-0.140465   1.084302   -0.009845   
-0.134028   1.079895   -0.018530   
-0.125097   1.071627   -0.026565   
-0.114009   1.059865   -0.033631   
-0.101199   1.045159   -0.039432   
-0.087185   1.028227   -0.043704   
-0.072555   1.009945   -0.046226   
-0.057948   0.991319   -0.046830   
-0.044034   0.973460   -0.045409   
-0.031494   0.957557   -0.041926   
-0.020989   0.944837   -0.036425   
-0.013133   0.936530   -0.029035   
-0.008466   0.933825   -0.019984   
-0.007409   0.937818   -0.009604   
-0.000658   0.953569   -0.007728   
-0.002203   0.937449   0.008760   
-0.008008   0.924692   0.022519   
-0.016797   0.919875   0.034618   
-0.028049   0.922012   0.044726   
-0.041197   0.930032   0.052615   
-0.055646   0.942814   0.058146   
-0.070791   0.959217   0.061254   
-0.086029   0.978096   0.061939   
-0.100774   0.998330   0.060262   
-0.114471   1.018832   0.056338   
-0.126607   1.038578   0.050340   
-0.136730   1.056619   0.042496   
-0.144458   1.072113   0.033083   
-0.149493   1.084338   0.022433   
-0.151635   1.092722   0.010918   
-0.150788   1.096860   -0.001055   
-0.146966   1.096533   -0.013052   
-0.140298   1.091717   -0.024629   
-0.131026   1.082591   -0.035341   
-0.119497   1.069537   -0.044760   
-0.106162   1.053134   -0.052489   
-0.091556   1.034147   -0.058172   
-0.076290   1.013506   -0.061513   
-0.061030   0.992286   -0.062282   
-0.046477   0.971681   -0.060333   
-0.033345   0.952970   -0.055612   
-0.022334   0.937487   -0.048167   
-0.014104   0.926575   -0.038165   
-0.009238   0.921551   -0.025898   
-0.008210   0.923652   -0.011798   
-0.002082   0.937949   -0.009315   
-0.003775   0.918218   0.010258   
-0.009858   0.907104   0.027800   
-0.019060   0.904467   0.043173   
-0.030824   0.909166   0.055990   
-0.044556   0.920008   0.065989   
-0.059639   0.935771   0.073011   
-0.075448   0.955228   0.076983   
-0.091364   0.977161   0.077911   
-0.106779   1.000378   0.075867   
-0.121119   1.023728   0.070994   
-0.133848   1.046114   0.063502   
-0.144488   1.066522   0.053672   
-0.152636   1.084037   0.041851   
-0.157971   1.097873   0.028449   
-0.160276   1.107399   0.013937   
-0.159441   1.112162   -0.001170   
-0.155476   1.111907   -0.016324   
-0.148508   1.106593   -0.030959   
-0.138786   1.096399   -0.044511   
-0.126672   1.081728   -0.056434   
-0.112635   1.063195   -0.066224   
-0.097237   1.041621   -0.073427   
-0.081118   1.018007   -0.077666   
-0.064978   0.993514   -0.078645   
-0.049561   0.969435   -0.076173   
-0.035627   0.947164   -0.070172   
-0.023926   0.928161   -0.060693   
-0.015175   0.913913   -0.047929   
-0.010022   0.905894   -0.032234   
-0.009007   0.905513   -0.014133   
-0.003727   0.917833   -0.010991   
-0.005573   0.894466   0.011805   
-0.011977   0.885500   0.033380   
-0.021665   0.885608   0.052213   
-0.034038   0.893472   0.067876   
-0.048470   0.907758   0.080086   
-0.064320   0.927134   0.088674   
-0.080941   0.950280   0.093566   
-0.097692   0.975901   0.094769   
-0.113944   1.002727   0.092370   
-0.129093   1.029530   0.086532   
-0.142574   1.055132   0.077502   
-0.153879   1.078433   0.065608   
-0.162570   1.098432   0.051264   
-0.168301   1.114261   0.034967   
-0.170829   1.125210   0.017286   
-0.170027   1.130765   -0.001149   
-0.165896   1.130627   -0.019666   
-0.158565   1.124730   -0.037569   
-0.148290   1.113254   -0.054164   
-0.135452   1.096624   -0.068780   
-0.120544   1.075505   -0.080795   
-0.104160   1.050782   -0.089653   
-0.086978   1.023544   -0.094886   
-0.069745   0.995056   -0.096129   
-0.053250   0.966728   -0.093139   
-0.038310   0.940090   -0.085808   
-0.025742   0.916751   -0.074182   
-0.016332   0.898367   -0.058475   
-0.010808   0.886598   -0.039091   
-0.009797   0.883061   -0.016642   
-0.005637   0.892768   -0.012774   
-0.007626   0.865822   0.013401   
-0.014373   0.859609   0.039291   
-0.024594   0.863100   0.061788   
-0.037643   0.874781   0.080450   
-0.052861   0.893165   0.094989   
-0.069581   0.916807   0.105237   
-0.087138   0.944298   0.111121   
-0.104865   0.974259   0.112652   
-0.122106   1.005343   0.109924   
-0.138225   1.036235   0.103116   
-0.152619   1.065665   0.092504   
-0.164738   1.092429   0.078462   
-0.174105   1.115421   0.061468   
-0.180334   1.133664   0.042106   
-0.183152   1.146356   0.021050   
-0.182411   1.152900   -0.000947   
-0.178099   1.152938   -0.023076   
-0.170345   1.146377   -0.044500   
-0.159419   1.133396   -0.064382   
-0.145724   1.114448   -0.081917   
-0.129783   1.090255   -0.096353   
-0.112230   1.061785   -0.107023   
-0.093790   1.030229   -0.113363   
-0.075258   0.996972   -0.114932   
-0.057485   0.963566   -0.111429   
-0.041352   0.931691   -0.102709   
-0.027751   0.903130   -0.088804   
-0.017553   0.879729   -0.069940   
-0.011580   0.863365   -0.046560   
-0.010569   0.855894   -0.019351   
-0.007860   0.862214   -0.014681   
-0.009963   0.831881   0.015036   
-0.017049   0.829143   0.045539   
-0.027815   0.836736   0.071918   
-0.041567   0.852933   0.093742   
-0.057616   0.876098   0.110743   
-0.075276   0.904677   0.122763   
-0.093861   0.937178   0.129735   
-0.112681   0.972149   0.131671   
-0.131052   1.008165   0.128664   
-0.148296   1.043820   0.120902   
-0.163764   1.077735   0.108676   
-0.176855   1.108587   0.092401   
-0.187038   1.135134   0.072617   
-0.193879   1.156271   0.049996   
-0.197065   1.171071   0.025325   
-0.196418   1.178835   -0.000507   
-0.191915   1.179132   -0.026543   
-0.183686   1.171830   -0.051787   
-0.172017   1.157108   -0.075245   
-0.157337   1.135455   -0.095958   
-0.140211   1.107665   -0.113040   
-0.121318   1.074802   -0.125700   
-0.101435   1.038181   -0.133273   
-0.081419   0.999328   -0.135235   
-0.062186   0.959950   -0.131220   
-0.044690   0.921901   -0.121043   
-0.029906   0.887154   -0.104709   
-0.018804   0.857767   -0.082445   
-0.012316   0.835856   -0.054720   
-0.011305   0.823551   -0.022281   
-0.010450   0.825547   -0.016721   
-0.012611   0.792229   0.016690   
-0.019995   0.793819   0.052108   
-0.031273   0.806313   0.082582   
-0.045705   0.827770   0.107736   
-0.062583   0.856414   0.127341   
-0.081206   0.890605   0.141267   
-0.100875   0.928786   0.149454   
-0.120882   0.969448   0.151908   
-0.140506   1.011094   0.148710   
-0.159027   1.052225   0.140038   
-0.175735   1.091341   0.126188   
-0.189965   1.126970   0.107603   
-0.201117   1.157712   0.084881   
-0.208696   1.182292   0.058784   
-0.212337   1.199626   0.030223   
-0.211829   1.208886   0.000236   
-0.207131   1.209548   -0.030049   
-0.198377   1.201431   -0.059459   
-0.185874   1.184714   -0.086823   
-0.170090   1.159937   -0.111013   
-0.151634   1.127977   -0.130990   
-0.131243   1.090022   -0.145836   
-0.109755   1.047529   -0.154774   
-0.088092   1.002186   -0.157195   
-0.067241   0.955876   -0.152667   
-0.048237   0.910643   -0.140951   
-0.032145   0.868663   -0.122023   
-0.020040   0.832225   -0.096092   
-0.012981   0.803703   -0.063637   
-0.011977   0.785527   -0.025442   
-0.013462   0.782061   -0.018896   
-0.015587   0.746465   0.018329   
-0.023187   0.753377   0.058941   
-0.034886   0.771649   0.093707   
-0.049916   0.799138   0.122350   
-0.067557   0.833962   0.144714   
-0.087112   0.874425   0.160708   
-0.107879   0.918945   0.170278   
-0.129133   0.965980   0.173413   
-0.150120   1.013978   0.170162   
-0.170065   1.061344   0.160669   
-0.188187   1.106444   0.145218   
-0.203736   1.147629   0.124261   
-0.216028   1.183295   0.098450   
-0.224487   1.211956   0.068638   
-0.228684   1.232329   0.035872   
-0.228365   1.243417   0.001362   
-0.223472   1.244577   -0.033570   
-0.214145   1.235571   -0.067545   
-0.200721   1.216583   -0.099188   
-0.183715   1.188214   -0.127185   
-0.163796   1.151454   -0.150330   
-0.141765   1.107638   -0.167565   
-0.118531   1.058396   -0.178002   
-0.095087   1.005600   -0.180943   
-0.072495   0.951328   -0.175886   
-0.051873   0.897824   -0.162540   
-0.034378   0.847483   -0.140835   
-0.021198   0.802829   -0.110953   
-0.013530   0.766508   -0.073355   
-0.012547   0.741273   -0.028835   
-0.016958   0.730982   -0.021199   
-0.018901   0.694241   0.019905   
-0.026578   0.707613   0.065939   
-0.038540   0.732603   0.105154   
-0.054006   0.766905   0.137429   
-0.072271   0.808579   0.162715   
-0.092660   0.855936   0.180972   
-0.114484   0.907419   0.192148   
-0.137012   0.961498   0.196193   
-0.159455   1.016587   0.193096   
-0.180972   1.071003   0.182938   
-0.200695   1.122955   0.165955   
-0.217765   1.170582   0.142592   
-0.231390   1.212023   0.113540   
-0.240890   1.245522   0.079749   
-0.245757   1.269535   0.042420   
-0.245684   1.282850   0.002961   
-0.240594   1.284676   -0.037077   
-0.230642   1.274702   -0.076073   
-0.216206   1.253127   -0.112416   
-0.197862   1.220637   -0.144580   
-0.176354   1.178369   -0.171179   
-0.152562   1.127841   -0.191007   
-0.127471   1.070890   -0.203066   
-0.102152   1.009602   -0.206570   
-0.077742   0.946265   -0.200952   
-0.055438   0.883336   -0.185865   
-0.036489   0.823426   -0.161191   
-0.022198   0.769296   -0.127059   
-0.013903   0.723866   -0.083889   
-0.012966   0.690220   -0.032447   
-0.020997   0.671480   -0.023609   
-0.022542   0.635305   0.021348   
-0.030092   0.656415   0.072946   
-0.042073   0.689104   0.116704   
-0.057721   0.730968   0.152724   
-0.076380   0.780097   0.181101   
-0.097426   0.834893   0.201859   
-0.120206   0.893902   0.214933   
-0.143996   0.955662   0.220206   
-0.167970   1.018595   0.217565   
-0.191211   1.080934   0.206983   
-0.212740   1.140712   0.188608   
-0.231562   1.195805   0.162842   
-0.246742   1.244029   0.130403   
-0.257470   1.283271   0.092343   
-0.263134   1.311653   0.050037   
-0.263366   1.327681   0.005131   
-0.258070   1.330373   -0.040545   
-0.247428   1.319339   -0.085083   
-0.231877   1.294803   -0.126595   
-0.212075   1.257578   -0.163313   
-0.188861   1.208992   -0.193654   
-0.163208   1.150801   -0.216264   
-0.136189   1.085089   -0.230038   
-0.108952   1.014189   -0.234117   
-0.082706   0.940617   -0.227877   
-0.058719   0.867045   -0.210919   
-0.038325   0.796292   -0.183067   
-0.022932   0.731340   -0.144384   
-0.014027   0.675372   -0.095214   
-0.013167   0.631796   -0.036245   
-0.025638   0.602697   -0.026093   
-0.026478   0.569566   0.022566   
-0.033619   0.599810   0.079739   
-0.045273   0.641175   0.128039   
-0.060738   0.691272   0.167872   
-0.079452   0.748342   0.199517   
-0.100883   0.810997   0.223065   
-0.124446   0.877991   0.238420   
-0.149438   0.948015   0.245354   
-0.175002   1.019546   0.243596   
-0.200130   1.090748   0.232946   
-0.223700   1.159456   0.213409   
-0.244543   1.223220   0.185299   
-0.261538   1.279434   0.149336   
-0.273707   1.325523   0.106680   
-0.280307   1.359165   0.058915   
-0.280898   1.378496   0.007978   
-0.275369   1.382293   -0.043960   
-0.263948   1.370073   -0.094637   
-0.247156   1.342119   -0.141837   
-0.225766   1.299422   -0.183513   
-0.200735   1.243577   -0.217872   
-0.173150   1.176643   -0.243416   
-0.144178   1.101013   -0.258950   
-0.115047   1.019299   -0.263563   
-0.087025   0.934264   -0.256595   
-0.061437   0.848785   -0.237606   
-0.039684   0.765868   -0.206360   
-0.023266   0.688686   -0.162834   
-0.013807   0.620646   -0.107252   
-0.013069   0.565456   -0.040169   
-0.030933   0.523774   -0.028595   
-0.030644   0.497164   0.023446   
-0.037001   0.538018   0.086014   
-0.047864   0.588974   0.138728   
-0.062653   0.647827   0.182380   
-0.080956   0.713137   0.217472   
-0.102389   0.783887   0.244163   
-0.126475   0.859172   0.262295   
-0.152559   0.937945   0.271470   
-0.179756   1.018812   0.271182   
-0.206949   1.099895   0.260976   
-0.232836   1.178800   0.240627   
-0.256021   1.252667   0.210303   
-0.275139   1.318346   0.170693   
-0.288994   1.372647   0.123070   
-0.296677   1.412649   0.069272   
-0.297663   1.436003   0.011602   
-0.291839   1.441176   -0.047337   
-0.279505   1.427588   -0.104840   
-0.261310   1.395628   -0.158296   
-0.238179   1.346555   -0.205339   
-0.211225   1.282332   -0.243956   
-0.181669   1.205420   -0.272519   
-0.150785   1.118591   -0.289777   
-0.119869   1.024785   -0.294804   
-0.090236   0.927014   -0.286937   
-0.063240   0.828347   -0.265718   
-0.040317   0.731934   -0.230854   
-0.023032   0.641081   -0.182214   
-0.013129   0.559358   -0.119859   
-0.012573   0.490721   -0.044132   
-0.036923   0.433904   -0.031038   
-0.034929   0.418571   0.023845   
-0.040029   0.471516   0.091378   
-0.049505   0.532831   0.148206   
-0.062977   0.600728   0.195601   
-0.080259   0.674310   0.234320   
-0.101180   0.753125   0.264584   
-0.125428   0.836788   0.286126   
-0.152431   0.924654   0.298304   
-0.181285   1.015554   0.300278   
-0.210745   1.107614   0.291225   
-0.239279   1.198181   0.270578   
-0.265194   1.283885   0.238267   
-0.286805   1.360856   0.194902   
-0.302624   1.425077   0.141877   
-0.311538   1.472817   0.081346   
-0.312919   1.501074   0.016087   
-0.306677   1.507918   -0.050739   
-0.293227   1.492677   -0.115865   
-0.273406   1.455928   -0.176194   
-0.248350   1.399337   -0.228997   
-0.219371   1.325383   -0.272039   
-0.187852   1.237063   -0.303598   
-0.155178   1.137624   -0.322420   
-0.122703   1.030374   -0.327625   
-0.091755   0.918583   -0.318601   
-0.063681   0.805470   -0.294904   
-0.039909   0.694261   -0.256194   
-0.022024   0.588313   -0.202211   
-0.011858   0.491264   -0.132801   
-0.011559   0.407223   -0.048006   
-0.043629   0.332393   -0.033313   
-0.039169   0.334691   0.023596   
-0.042435   0.401107   0.095338   
-0.049789   0.473289   0.155772   
-0.061144   0.550182   0.206727   
-0.076631   0.631701   0.249246   
-0.096377   0.718203   0.283592   
-0.120303   0.810030   0.309334   
-0.147972   0.907118   0.325497   
-0.178482   1.008665   0.330783   
-0.210439   1.112872   0.323847   
-0.242021   1.216810   0.303629   
-0.271142   1.316470   0.269688   
-0.295689   1.407031   0.222484   
-0.313791   1.483344   0.163532   
-0.324065   1.540568   0.095395   
-0.325777   1.574806   0.021477   
-0.318893   1.583619   -0.054317   
-0.304020   1.566262   -0.127994   
-0.282265   1.523652   -0.195852   
-0.255053   1.458065   -0.254756   
-0.223954   1.372719   -0.302265   
-0.190543   1.271324   -0.336627   
-0.156314   1.157720   -0.356675   
-0.122652   1.035631   -0.361667   
-0.090859   0.908566   -0.351111   
-0.062216   0.779828   -0.324630   
-0.038080   0.652624   -0.281849   
-0.019999   0.530237   -0.222362   
-0.009835   0.416245   -0.145738   
-0.009887   0.314773   -0.051619   
-0.051043   0.218743   -0.035280   
-0.043132   0.246985   0.022515   
-0.043896   0.327991   0.097311   
-0.048258   0.411153   0.160583   
-0.056533   0.496535   0.214784   
-0.069275   0.585190   0.261250   
-0.087004   0.678549   0.300262   
-0.109971   0.777925   0.331165   
-0.137947   0.884061   0.352551   
-0.170070   0.996715   0.362510   
-0.204783   1.114288   0.358985   
-0.239900   1.233589   0.340208   
-0.272815   1.349821   0.305176   
-0.300836   1.456900   0.254076   
-0.321573   1.548118   0.188547   
-0.333298   1.617067   0.111682   
-0.335165   1.658612   0.027744   
-0.327263   1.669645   -0.058358   
-0.310504   1.649424   -0.141667   
-0.286388   1.599439   -0.217734   
-0.256735   1.522909   -0.282970   
-0.223444   1.424104   -0.334783   
-0.188305   1.307690   -0.371507   
-0.152910   1.178232   -0.392198   
-0.118633   1.039906   -0.396376   
-0.086681   0.896409   -0.383773   
-0.058195   0.751027   -0.354134   
-0.034383   0.606809   -0.307077   
-0.016672   0.466805   -0.242024   
-0.006883   0.334358   -0.158205   
-0.007402   0.213426   -0.054748   
-0.059117   0.092759   -0.036761   
-0.046513   0.157585   0.020409   
-0.044046   0.253825   0.096635   