<VTKFile type="UnstructuredGrid"  version="0.1"   > 
<UnstructuredGrid> 
<Piece  NumberOfPoints="  2145" NumberOfCells=" 2048"> 
<Points> 
<DataArray  type="Float64"  NumberOfComponents="3"  format="ascii" > 
0.000000 0.000000 0.0 
0.000000 0.000000 0.0 
0.000000 0.000000 0.0 
0.000000 0.000000 0.0 
0.000000 0.000000 0.0 
0.000000 0.000000 0.0 
0.000000 0.000000 0.0 
0.000000 0.000000 0.0 
0.000000 0.000000 0.0 
0.000000 0.000000 0.0 
0.000000 0.000000 0.0 
0.000000 0.000000 0.0 
0.000000 0.000000 0.0 
0.000000 0.000000 0.0 
0.000000 0.000000 0.0 
0.000000 0.000000 0.0 
0.000000 0.000000 0.0 
0.000000 0.000000 0.0 
0.000000 0.000000 0.0 
0.000000 0.000000 0.0 
0.000000 0.000000 0.0 
0.000000 0.000000 0.0 
0.000000 0.000000 0.0 
0.000000 0.000000 0.0 
0.000000 0.000000 0.0 
0.000000 0.000000 0.0 
0.000000 0.000000 0.0 
0.000000 0.000000 0.0 
0.000000 0.000000 0.0 
0.000000 0.000000 0.0 
0.000000 0.000000 0.0 
0.000000 0.000000 0.0 
0.000000 0.000000 0.0 
-0.036914 0.000000 0.0 
-0.036302 0.001653 0.0 
-0.035653 0.003279 0.0 
-0.034968 0.004878 0.0 
-0.034247 0.006449 0.0 
-0.033489 0.007991 0.0 
-0.032695 0.009502 0.0 
-0.031865 0.010984 0.0 
-0.030999 0.012433 0.0 
-0.030098 0.013851 0.0 
-0.029162 0.015236 0.0 
-0.028191 0.016588 0.0 
-0.027185 0.017905 0.0 
-0.026144 0.019188 0.0 
-0.025070 0.020436 0.0 
-0.023963 0.021647 0.0 
-0.022822 0.022822 0.0 
-0.021647 0.023963 0.0 
-0.020436 0.025070 0.0 
-0.019188 0.026144 0.0 
-0.017905 0.027185 0.0 
-0.016588 0.028191 0.0 
-0.015236 0.029162 0.0 
-0.013851 0.030098 0.0 
-0.012433 0.030999 0.0 
-0.010984 0.031865 0.0 
-0.009502 0.032695 0.0 
-0.007991 0.033489 0.0 
-0.006449 0.034247 0.0 
-0.004878 0.034968 0.0 
-0.003279 0.035653 0.0 
-0.001653 0.036302 0.0 
0.000000 0.036914 0.0 
-0.072656 0.000000 0.0 
-0.071597 0.003327 0.0 
-0.070454 0.006608 0.0 
-0.069229 0.009839 0.0 
-0.067920 0.013018 0.0 
-0.066529 0.016141 0.0 
-0.065056 0.019205 0.0 
-0.063502 0.022207 0.0 
-0.061866 0.025145 0.0 
-0.060150 0.028014 0.0 
-0.058354 0.030813 0.0 
-0.056480 0.033539 0.0 
-0.054529 0.036189 0.0 
-0.052502 0.038761 0.0 
-0.050401 0.041252 0.0 
-0.048227 0.043660 0.0 
-0.045983 0.045983 0.0 
-0.043660 0.048227 0.0 
-0.041252 0.050401 0.0 
-0.038761 0.052502 0.0 
-0.036189 0.054529 0.0 
-0.033539 0.056480 0.0 
-0.030813 0.058354 0.0 
-0.028014 0.060150 0.0 
-0.025145 0.061866 0.0 
-0.022207 0.063502 0.0 
-0.019205 0.065056 0.0 
-0.016141 0.066529 0.0 
-0.013018 0.067920 0.0 
-0.009839 0.069229 0.0 
-0.006608 0.070454 0.0 
-0.003327 0.071597 0.0 
0.000000 0.072656 0.0 
-0.107227 0.000000 0.0 
-0.105863 0.005022 0.0 
-0.104364 0.009984 0.0 
-0.102729 0.014879 0.0 
-0.100957 0.019700 0.0 
-0.099049 0.024441 0.0 
-0.097005 0.029094 0.0 
-0.094825 0.033653 0.0 
-0.092512 0.038111 0.0 
-0.090065 0.042461 0.0 
-0.087488 0.046699 0.0 
-0.084782 0.050816 0.0 
-0.081949 0.054808 0.0 
-0.078993 0.058669 0.0 
-0.075916 0.062394 0.0 
-0.072722 0.065977 0.0 
-0.069415 0.069415 0.0 
-0.065977 0.072722 0.0 
-0.062394 0.075916 0.0 
-0.058669 0.078993 0.0 
-0.054808 0.081949 0.0 
-0.050816 0.084782 0.0 
-0.046699 0.087488 0.0 
-0.042461 0.090065 0.0 
-0.038111 0.092512 0.0 
-0.033653 0.094825 0.0 
-0.029094 0.097005 0.0 
-0.024441 0.099049 0.0 
-0.019700 0.100957 0.0 
-0.014879 0.102729 0.0 
-0.009984 0.104364 0.0 
-0.005022 0.105863 0.0 
0.000000 0.107227 0.0 
-0.140625 0.000000 0.0 
-0.139082 0.006737 0.0 
-0.137346 0.013405 0.0 
-0.135417 0.019992 0.0 
-0.133292 0.026487 0.0 
-0.130973 0.032878 0.0 
-0.128458 0.039152 0.0 
-0.125748 0.045298 0.0 
-0.122846 0.051305 0.0 
-0.119752 0.057161 0.0 
-0.116470 0.062855 0.0 
-0.113003 0.068376 0.0 
-0.109354 0.073714 0.0 
-0.105529 0.078859 0.0 
-0.101532 0.083802 0.0 
-0.097369 0.088534 0.0 
-0.093046 0.093046 0.0 
-0.088534 0.097369 0.0 
-0.083802 0.101532 0.0 
-0.078859 0.105529 0.0 
-0.073714 0.109354 0.0 
-0.068376 0.113003 0.0 
-0.062855 0.116470 0.0 
-0.057161 0.119752 0.0 
-0.051305 0.122846 0.0 
-0.045298 0.125748 0.0 
-0.039152 0.128458 0.0 
-0.032878 0.130973 0.0 
-0.026487 0.133292 0.0 
-0.019992 0.135417 0.0 
-0.013405 0.137346 0.0 
-0.006737 0.139082 0.0 
0.000000 0.140625 0.0 
-0.172852 0.000000 0.0 
-0.171232 0.008471 0.0 
-0.169363 0.016868 0.0 
-0.167240 0.025174 0.0 
-0.164862 0.033370 0.0 
-0.162227 0.041439 0.0 
-0.159333 0.049363 0.0 
-0.156182 0.057122 0.0 
-0.152775 0.064701 0.0 
-0.149114 0.072080 0.0 
-0.145203 0.079243 0.0 
-0.141046 0.086173 0.0 
-0.136648 0.092854 0.0 
-0.132017 0.099271 0.0 
-0.127159 0.105410 0.0 
-0.122083 0.111256 0.0 
-0.116798 0.116798 0.0 
-0.111256 0.122083 0.0 
-0.105410 0.127159 0.0 
-0.099271 0.132017 0.0 
-0.092854 0.136648 0.0 
-0.086173 0.141046 0.0 
-0.079243 0.145203 0.0 
-0.072080 0.149114 0.0 
-0.064701 0.152775 0.0 
-0.057122 0.156182 0.0 
-0.049363 0.159333 0.0 
-0.041439 0.162227 0.0 
-0.033370 0.164862 0.0 
-0.025174 0.167240 0.0 
-0.016868 0.169363 0.0 
-0.008471 0.171232 0.0 
0.000000 0.172852 0.0 
-0.203906 0.000000 0.0 
-0.202297 0.010224 0.0 
-0.200380 0.020372 0.0 
-0.198150 0.030419 0.0 
-0.195604 0.040341 0.0 
-0.192737 0.050112 0.0 
-0.189548 0.059707 0.0 
-0.186037 0.069100 0.0 
-0.182204 0.078266 0.0 
-0.178053 0.087180 0.0 
-0.173586 0.095818 0.0 
-0.168810 0.104156 0.0 
-0.163732 0.112170 0.0 
-0.158360 0.119840 0.0 
-0.152704 0.127145 0.0 
-0.146775 0.134066 0.0 
-0.140586 0.140586 0.0 
-0.134066 0.146775 0.0 
-0.127145 0.152704 0.0 
-0.119840 0.158360 0.0 
-0.112170 0.163732 0.0 
-0.104156 0.168810 0.0 
-0.095818 0.173586 0.0 
-0.087180 0.178053 0.0 
-0.078266 0.182204 0.0 
-0.069100 0.186037 0.0 
-0.059707 0.189548 0.0 
-0.050112 0.192737 0.0 
-0.040341 0.195604 0.0 
-0.030419 0.198150 0.0 
-0.020372 0.200380 0.0 
-0.010224 0.202297 0.0 
0.000000 0.203906 0.0 
-0.233789 0.000000 0.0 
-0.232257 0.011995 0.0 
-0.230362 0.023913 0.0 
-0.228097 0.035722 0.0 
-0.225455 0.047389 0.0 
-0.222430 0.058881 0.0 
-0.219019 0.070164 0.0 
-0.215221 0.081205 0.0 
-0.211036 0.091969 0.0 
-0.206466 0.102423 0.0 
-0.201515 0.112533 0.0 
-0.196191 0.122270 0.0 
-0.190500 0.131601 0.0 
-0.184455 0.140497 0.0 
-0.178067 0.148933 0.0 
-0.171350 0.156882 0.0 
-0.164322 0.164322 0.0 
-0.156882 0.171350 0.0 
-0.148933 0.178067 0.0 
-0.140497 0.184455 0.0 
-0.131601 0.190500 0.0 
-0.122270 0.196191 0.0 
-0.112533 0.201515 0.0 
-0.102423 0.206466 0.0 
-0.091969 0.211036 0.0 
-0.081205 0.215221 0.0 
-0.070164 0.219019 0.0 
-0.058881 0.222430 0.0 
-0.047389 0.225455 0.0 
-0.035722 0.228097 0.0 
-0.023913 0.230362 0.0 
-0.011995 0.232257 0.0 
0.000000 0.233789 0.0 
-0.262500 0.000000 0.0 
-0.261096 0.013784 0.0 
-0.259277 0.027490 0.0 
-0.257033 0.041077 0.0 
-0.254355 0.054506 0.0 
-0.251234 0.067732 0.0 
-0.247665 0.080715 0.0 
-0.243645 0.093410 0.0 
-0.239174 0.105774 0.0 
-0.234253 0.117764 0.0 
-0.228886 0.129339 0.0 
-0.223081 0.140457 0.0 
-0.216847 0.151079 0.0 
-0.210197 0.161169 0.0 
-0.203145 0.170691 0.0 
-0.195710 0.179614 0.0 
-0.187911 0.187911 0.0 
-0.179614 0.195710 0.0 
-0.170691 0.203145 0.0 
-0.161169 0.210197 0.0 
-0.151079 0.216847 0.0 
-0.140457 0.223081 0.0 
-0.129339 0.228886 0.0 
-0.117764 0.234253 0.0 
-0.105774 0.239174 0.0 
-0.093410 0.243645 0.0 
-0.080715 0.247665 0.0 
-0.067732 0.251234 0.0 
-0.054506 0.254355 0.0 
-0.041077 0.257033 0.0 
-0.027490 0.259277 0.0 
-0.013784 0.261096 0.0 
0.000000 0.262500 0.0 
-0.290039 0.000000 0.0 
-0.288797 0.015590 0.0 
-0.287094 0.031099 0.0 
-0.284914 0.046479 0.0 
-0.282246 0.061680 0.0 
-0.279079 0.076650 0.0 
-0.275405 0.091336 0.0 
-0.271220 0.105686 0.0 
-0.266522 0.119645 0.0 
-0.261311 0.133161 0.0 
-0.255593 0.146181 0.0 
-0.249373 0.158656 0.0 
-0.242664 0.170537 0.0 
-0.235478 0.181777 0.0 
-0.227835 0.192336 0.0 
-0.219753 0.202174 0.0 
-0.211257 0.211257 0.0 
-0.202174 0.219753 0.0 
-0.192336 0.227835 0.0 
-0.181777 0.235478 0.0 
-0.170537 0.242664 0.0 
-0.158656 0.249373 0.0 
-0.146181 0.255593 0.0 
-0.133161 0.261311 0.0 
-0.119645 0.266522 0.0 
-0.105686 0.271220 0.0 
-0.091336 0.275405 0.0 
-0.076650 0.279079 0.0 
-0.061680 0.282246 0.0 
-0.046479 0.284914 0.0 
-0.031099 0.287094 0.0 
-0.015590 0.288797 0.0 
0.000000 0.290039 0.0 
-0.316406 0.000000 0.0 
-0.315346 0.017412 0.0 
-0.313781 0.034737 0.0 
-0.311695 0.051920 0.0 
-0.309071 0.068900 0.0 
-0.305896 0.085616 0.0 
-0.302162 0.102005 0.0 
-0.297859 0.118002 0.0 
-0.292986 0.133544 0.0 
-0.287542 0.148566 0.0 
-0.281530 0.163007 0.0 
-0.274960 0.176804 0.0 
-0.267841 0.189902 0.0 
-0.260191 0.202244 0.0 
-0.252028 0.213781 0.0 
-0.243376 0.224467 0.0 
-0.234261 0.234261 0.0 
-0.224467 0.243376 0.0 
-0.213781 0.252028 0.0 
-0.202244 0.260191 0.0 
-0.189902 0.267841 0.0 
-0.176804 0.274960 0.0 
-0.163007 0.281530 0.0 
-0.148566 0.287542 0.0 
-0.133544 0.292986 0.0 
-0.118002 0.297859 0.0 
-0.102005 0.302162 0.0 
-0.085616 0.305896 0.0 
-0.068900 0.309071 0.0 
-0.051920 0.311695 0.0 
-0.034737 0.313781 0.0 
-0.017412 0.315346 0.0 
0.000000 0.316406 0.0 
-0.341602 0.000000 0.0 
-0.340728 0.019249 0.0 
-0.339312 0.038402 0.0 
-0.337335 0.057395 0.0 
-0.334777 0.076157 0.0 
-0.331622 0.094616 0.0 
-0.327858 0.112698 0.0 
-0.323477 0.130328 0.0 
-0.318473 0.147431 0.0 
-0.312845 0.163932 0.0 
-0.306596 0.179758 0.0 
-0.299735 0.194837 0.0 
-0.292272 0.209102 0.0 
-0.284227 0.222488 0.0 
-0.275619 0.234938 0.0 
-0.266475 0.246399 0.0 
-0.256824 0.256824 0.0 
-0.246399 0.266475 0.0 
-0.234938 0.275619 0.0 
-0.222488 0.284227 0.0 
-0.209102 0.292272 0.0 
-0.194837 0.299735 0.0 
-0.179758 0.306596 0.0 
-0.163932 0.312845 0.0 
-0.147431 0.318473 0.0 
-0.130328 0.323477 0.0 
-0.112698 0.327858 0.0 
-0.094616 0.331622 0.0 
-0.076157 0.334777 0.0 
-0.057395 0.337335 0.0 
-0.038402 0.339312 0.0 
-0.019249 0.340728 0.0 
0.000000 0.341602 0.0 
-0.365625 0.000000 0.0 
-0.364929 0.021100 0.0 
-0.363660 0.042091 0.0 
-0.361795 0.062897 0.0 
-0.359312 0.083438 0.0 
-0.356193 0.103631 0.0 
-0.352424 0.123391 0.0 
-0.347993 0.142632 0.0 
-0.342895 0.161268 0.0 
-0.337126 0.179211 0.0 
-0.330690 0.196378 0.0 
-0.323594 0.212688 0.0 
-0.315852 0.228061 0.0 
[...]
<PointData  Vectors="U"> 
<DataArray  type="Float64"  Name="U" NumberOfComponents="3" format="ascii"> 
0.0310308   0.00313458   1.76103e-08   
0.0310308   0.00313463   4.56489e-08   
0.0310308   0.00313465   5.74553e-08   
0.0310308   0.00313468   6.74731e-08   
0.0310309   0.00313471   7.62988e-08   
0.0310309   0.00313474   8.3887e-08   
0.0310309   0.00313477   9.0309e-08   
0.0310309   0.0031348   9.56375e-08   
0.0310309   0.00313483   9.99726e-08   
0.0310309   0.00313485   1.03428e-07   
0.0310309   0.00313488   1.06127e-07   
0.0310309   0.00313491   1.08189e-07   
0.0310309   0.00313493   1.09728e-07   
0.0310309   0.00313495   1.10838e-07   
0.0310309   0.00313497   1.11589e-07   
0.0310309   0.00313499   1.12022e-07   
0.0310309   0.003135   1.12389e-07   
0.0310309   0.00313501   1.12412e-07   
0.0310309   0.00313501   1.12007e-07   
0.0310308   0.00313502   1.11069e-07   
0.0310308   0.00313502   1.09472e-07   
0.0310308   0.00313501   1.07077e-07   
0.0310308   0.00313501   1.03737e-07   
0.0310307   0.003135   9.93122e-08   
0.0310307   0.00313499   9.36745e-08   
0.0310307   0.00313498   8.67161e-08   
0.0310307   0.00313496   7.8357e-08   
0.0310306   0.00313495   6.85455e-08   
0.0310306   0.00313494   5.72759e-08   
0.0310306   0.00313493   4.453e-08   
0.0310306   0.00313492   3.0485e-08   
0.0310306   0.00313491   1.56763e-08   
0.0310306   0.00313491   1.47688e-08   
0.0310306   0.00313536   -1.51624e-08   
0.0310306   0.00313533   -3.91666e-08   
0.0310306   0.00313531   -6.52393e-08   
0.0310306   0.00313528   -8.88524e-08   
0.0310307   0.00313525   -1.1123e-07   
0.0310307   0.00313522   -1.32037e-07   
0.0310307   0.00313518   -1.51333e-07   
0.0310307   0.00313515   -1.69058e-07   
0.0310307   0.00313512   -1.85169e-07   
0.0310307   0.00313508   -1.99608e-07   
0.0310307   0.00313505   -2.1231e-07   
0.0310307   0.00313501   -2.23211e-07   
0.0310307   0.00313498   -2.32242e-07   
0.0310307   0.00313495   -2.39345e-07   
0.0310308   0.00313492   -2.44466e-07   
0.0310308   0.00313489   -2.47565e-07   
0.0310308   0.00313486   -2.48618e-07   
0.0310308   0.00313484   -2.4754e-07   
0.0310308   0.00313481   -2.4441e-07   
0.0310309   0.00313479   -2.39247e-07   
0.0310309   0.00313477   -2.3209e-07   
0.0310309   0.00313475   -2.22985e-07   
0.0310309   0.00313474   -2.11991e-07   
0.031031   0.00313472   -1.99168e-07   
0.031031   0.00313471   -1.8458e-07   
0.031031   0.00313469   -1.68286e-07   
0.031031   0.00313468   -1.50341e-07   
0.0310311   0.00313467   -1.30791e-07   
0.0310311   0.00313466   -1.09675e-07   
0.0310311   0.00313466   -8.70091e-08   
0.0310311   0.00313465   -6.28429e-08   
0.0310312   0.00313464   -3.70545e-08   
0.0310312   0.00313464   -1.01045e-08   
0.0310296   0.00313648   -8.65187e-09   
0.0310296   0.00313642   -1.24085e-07   
0.0310297   0.00313636   -2.37702e-07   
0.0310297   0.00313629   -3.44305e-07   
0.0310298   0.00313622   -4.44726e-07   
0.0310298   0.00313613   -5.38256e-07   
0.0310299   0.00313604   -6.24647e-07   
0.03103   0.00313594   -7.0358e-07   
0.03103   0.00313584   -7.74798e-07   
0.0310301   0.00313573   -8.38072e-07   
0.0310302   0.00313562   -8.93205e-07   
0.0310303   0.0031355   -9.40037e-07   
0.0310304   0.00313539   -9.78437e-07   
0.0310304   0.00313527   -1.00831e-06   
0.0310305   0.00313516   -1.02959e-06   
0.0310306   0.00313504   -1.04226e-06   
0.0310307   0.00313493   -1.04632e-06   
0.0310308   0.00313482   -1.04176e-06   
0.0310309   0.00313471   -1.02862e-06   
0.031031   0.0031346   -1.00689e-06   
0.0310311   0.00313449   -9.76617e-07   
0.0310312   0.00313439   -9.37877e-07   
0.0310313   0.0031343   -8.90781e-07   
0.0310314   0.00313421   -8.3547e-07   
0.0310315   0.00313412   -7.72117e-07   
0.0310316   0.00313404   -7.00925e-07   
0.0310317   0.00313396   -6.22128e-07   
0.0310317   0.00313389   -5.35987e-07   
0.0310318   0.00313383   -4.42798e-07   
0.0310319   0.00313377   -3.42876e-07   
0.0310319   0.00313372   -2.36607e-07   
0.031032   0.00313367   -1.24262e-07   
0.031032   0.00313364   -6.72813e-09   
0.031028   0.0031383   -8.29239e-09   
0.0310281   0.0031382   -2.70732e-07   
0.0310282   0.00313809   -5.26432e-07   
0.0310283   0.00313795   -7.6933e-07   
0.0310284   0.00313779   -9.99508e-07   
0.0310285   0.00313762   -1.21547e-06   
0.0310287   0.00313743   -1.41623e-06   
0.0310288   0.00313723   -1.60076e-06   
0.031029   0.00313701   -1.76816e-06   
0.0310292   0.00313678   -1.9176e-06   
0.0310294   0.00313655   -2.0484e-06   
0.0310296   0.0031363   -2.15994e-06   
0.0310298   0.00313605   -2.25174e-06   
0.03103   0.0031358   -2.32344e-06   
0.0310302   0.00313554   -2.37479e-06   
0.0310304   0.00313529   -2.40566e-06   
0.0310306   0.00313503   -2.41608e-06   
0.0310308   0.00313478   -2.40603e-06   
0.031031   0.00313453   -2.37556e-06   
0.0310313   0.00313428   -2.32457e-06   
0.0310315   0.00313404   -2.25322e-06   
0.0310317   0.00313381   -2.16173e-06   
0.0310319   0.00313358   -2.05046e-06   
0.0310321   0.00313336   -1.9199e-06   
0.0310323   0.00313316   -1.77062e-06   
0.0310325   0.00313297   -1.60333e-06   
0.0310326   0.00313279   -1.41881e-06   
0.0310328   0.00313262   -1.21796e-06   
0.0310329   0.00313248   -1.00177e-06   
0.0310331   0.00313234   -7.71266e-07   
0.0310332   0.00313223   -5.2762e-07   
0.0310333   0.00313213   -2.71901e-07   
0.0310333   0.00313205   -5.76032e-09   
0.0310259   0.00314072   -6.90532e-09   
0.031026   0.00314057   -4.75014e-07   
0.0310262   0.0031404   -9.30331e-07   
0.0310264   0.00314018   -1.36538e-06   
0.0310266   0.00313993   -1.77906e-06   
0.0310268   0.00313965   -2.1687e-06   
0.031027   0.00313933   -2.53213e-06   
0.0310273   0.00313899   -2.86722e-06   
0.0310276   0.00313863   -3.17204e-06   
0.0310279   0.00313824   -3.44481e-06   
0.0310283   0.00313783   -3.68399e-06   
0.0310286   0.00313741   -3.88825e-06   
0.031029   0.00313697   -4.05652e-06   
0.0310293   0.00313653   -4.18799e-06   
0.0310297   0.00313608   -4.28213e-06   
0.0310301   0.00313563   -4.33863e-06   
0.0310305   0.00313519   -4.35766e-06   
0.0310308   0.00313474   -4.33918e-06   
0.0310312   0.00313429   -4.28327e-06   
0.0310316   0.00313386   -4.18966e-06   
0.031032   0.00313342   -4.05868e-06   
0.0310324   0.003133   -3.89082e-06   
0.0310327   0.0031326   -3.68687e-06   
0.0310331   0.00313221   -3.4479e-06   
0.0310334   0.00313185   -3.17522e-06   
0.0310337   0.00313151   -2.87036e-06   
0.031034   0.00313119   -2.53511e-06   
0.0310342   0.0031309   -2.17139e-06   
0.0310345   0.00313064   -1.78133e-06   
0.0310347   0.00313042   -1.3672e-06   
0.0310348   0.00313023   -9.31392e-07   
0.031035   0.00313007   -4.76273e-07   
0.0310351   0.00312995   -4.78879e-09   
0.0310233   0.00314367   -6.63184e-09   
0.0310235   0.00314348   -7.33815e-07   
0.0310237   0.00314324   -1.44288e-06   
0.031024   0.00314294   -2.12415e-06   
0.0310243   0.00314258   -2.77456e-06   
0.0310246   0.00314217   -3.3895e-06   
0.031025   0.00314171   -3.96499e-06   
0.0310254   0.0031412   -4.49715e-06   
0.0310258   0.00314065   -4.98243e-06   
0.0310263   0.00314006   -5.4176e-06   
0.0310268   0.00313945   -5.79982e-06   
0.0310274   0.0031388   -6.12663e-06   
0.0310279   0.00313814   -6.39608e-06   
0.0310285   0.00313746   -6.60666e-06   
0.0310291   0.00313677   -6.75743e-06   
0.0310297   0.00313607   -6.84786e-06   
0.0310303   0.00313539   -6.87831e-06   
0.0310308   0.0031347   -6.84874e-06   
0.0310314   0.00313401   -6.75926e-06   
0.031032   0.00313333   -6.60934e-06   
0.0310326   0.00313266   -6.39953e-06   
0.0310332   0.00313201   -6.13073e-06   
0.0310337   0.00313138   -5.80442e-06   
0.0310342   0.00313078   -5.42254e-06   
0.0310347   0.00313021   -4.98753e-06   
0.0310352   0.00312968   -4.50222e-06   
0.0310356   0.0031292   -3.96985e-06   
0.031036   0.00312876   -3.39399e-06   
0.0310364   0.00312838   -2.77848e-06   
0.0310367   0.00312804   -2.12743e-06   
0.0310369   0.00312776   -1.44512e-06   
0.0310371   0.00312754   -7.35888e-07   
0.0310372   0.00312738   -4.61617e-09   
0.0310204   0.00314708   -6.56605e-09   
0.0310206   0.00314686   -1.04572e-06   
0.0310208   0.00314656   -2.06157e-06   
0.0310212   0.00314616   -3.04188e-06   
0.0310216   0.00314569   -3.98114e-06   
0.031022   0.00314513   -4.8722e-06   
0.0310225   0.0031445   -5.7086e-06   
0.0310231   0.00314381   -6.48411e-06   
0.0310238   0.00314304   -7.19293e-06   
0.0310244   0.00314223   -7.82977e-06   
0.0310252   0.00314136   -8.38997e-06   
0.0310259   0.00314046   -8.86952e-06   
0.0310267   0.00313952   -9.26518e-06   
0.0310275   0.00313856   -9.5745e-06   
0.0310284   0.00313758   -9.79596e-06   
0.0310292   0.00313661   -9.9287e-06   
0.03103   0.00313563   -9.97338e-06   
0.0310308   0.00313466   -9.93003e-06   
0.0310317   0.00313368   -9.79876e-06   
0.0310325   0.00313271   -9.57862e-06   
0.0310333   0.00313176   -9.27051e-06   
0.0310341   0.00313083   -8.87585e-06   
0.0310349   0.00312994   -8.39709e-06   
0.0310356   0.00312908   -7.83742e-06   
0.0310363   0.00312828   -7.20082e-06   
0.031037   0.00312754   -6.49196e-06   
0.0310376   0.00312686   -5.71613e-06   
0.0310381   0.00312625   -4.87912e-06   
0.0310386   0.00312572   -3.98718e-06   
0.031039   0.00312526   -3.04686e-06   
0.0310393   0.00312489   -2.06502e-06   
0.0310396   0.00312461   -1.04852e-06   
0.0310397   0.00312442   -4.71914e-09   
0.0310171   0.0031509   -6.8846e-09   
0.0310173   0.00315066   -1.40792e-06   
0.0310176   0.00315029   -2.78148e-06   
0.031018   0.0031498   -4.11201e-06   
0.0310185   0.0031492   -5.39084e-06   
0.0310191   0.00314849   -6.60766e-06   
0.0310198   0.00314768   -7.75288e-06   
0.0310205   0.00314677   -8.81722e-06   
0.0310214   0.00314577   -9.79201e-06   
0.0310223   0.00314469   -1.06693e-05   
0.0310233   0.00314355   -1.14421e-05   
0.0310243   0.00314235   -1.21043e-05   
0.0310253   0.0031411   -1.2651e-05   
0.0310264   0.00313982   -1.30785e-05   
0.0310275   0.00313852   -1.33846e-05   
0.0310286   0.00313722   -1.3568e-05   
0.0310297   0.00313593   -1.36298e-05   
0.0310308   0.00313463   -1.35701e-05   
0.0310319   0.00313333   -1.33889e-05   
0.0310331   0.00313203   -1.30849e-05   
0.0310342   0.00313075   -1.26592e-05   
0.0310352   0.00312951   -1.21141e-05   
0.0310363   0.00312831   -1.14531e-05   
0.0310372   0.00312717   -1.06811e-05   
0.0310382   0.0031261   -9.8042e-06   
0.031039   0.00312511   -8.82934e-06   
0.0310398   0.00312421   -7.76448e-06   
0.0310405   0.00312341   -6.61831e-06   
0.0310411   0.00312271   -5.40011e-06   
0.0310416   0.00312213   -4.11961e-06   
0.031042   0.00312167   -2.78683e-06   
0.0310423   0.00312132   -1.41186e-06   
0.0310425   0.0031211   -5.16922e-09   
0.0310135   0.00315506   -7.44027e-09   
0.0310137   0.00315479   -1.81808e-06   
0.0310141   0.00315437   -3.59782e-06   
0.0310145   0.0031538   -5.32734e-06   
0.0310151   0.00315307   -6.99424e-06   
0.0310159   0.00315219   -8.58439e-06   
0.0310167   0.00315118   -1.00844e-05   
0.0310177   0.00315004   -1.14813e-05   
0.0310188   0.00314878   -1.2763e-05   
0.0310199   0.00314742   -1.39182e-05   
0.0310211   0.00314597   -1.49369e-05   
0.0310224   0.00314444   -1.58106e-05   
0.0310238   0.00314285   -1.65324e-05   
0.0310252   0.00314122   -1.70969e-05   
0.0310266   0.00313957   -1.75011e-05   
0.031028   0.00313791   -1.77431e-05   
0.0310294   0.00313627   -1.78248e-05   
0.0310308   0.00313462   -1.77462e-05   
0.0310322   0.00313296   -1.75076e-05   
0.0310336   0.00313129   -1.71065e-05   
0.031035   0.00312966   -1.65448e-05   
0.0310364   0.00312806   -1.58254e-05   
0.0310377   0.00312652   -1.49535e-05   
0.031039   0.00312506   -1.3936e-05   
0.0310402   0.00312369   -1.27814e-05   
0.0310413   0.00312243   -1.14996e-05   
0.0310422   0.00312129   -1.01019e-05   
0.0310431   0.00312028   -8.60036e-06   
0.0310439   0.00311941   -7.0081e-06   
0.0310445   0.0031187   -5.33863e-06   
0.031045   0.00311814   -3.6058e-06   
0.0310453   0.00311774   -1.82351e-06   
0.0310455   0.00311749   -5.85271e-09   
0.0310096   0.00315949   -8.21809e-09   
0.0310099   0.00315922   -2.27349e-06   
0.0310103   0.00315875   -4.50519e-06   
0.0310108   0.00315808   -6.67966e-06   
0.0310115   0.00315722   -8.78027e-06   
0.0310124   0.00315618   -1.07885e-05   
0.0310135   0.00315495   -1.26865e-05   
0.0310146   0.00315357   -1.44572e-05   
0.0310159   0.00315203   -1.60841e-05   
0.0310173   0.00315037   -1.75523e-05   
0.0310189   0.00314858   -1.88482e-05   
0.0310205   0.0031467   -1.99605e-05   
0.0310221   0.00314475   -2.08797e-05   
0.0310238   0.00314274   -2.15988e-05   
0.0310256   0.00314071   -2.21136e-05   
0.0310273   0.00313867   -2.24219e-05   
0.031029   0.00313666   -2.2526e-05   
0.0310307   0.00313464   -2.24264e-05   
0.0310325   0.00313258   -2.21231e-05   
0.0310342   0.00313053   -2.16128e-05   
0.031036   0.0031285   -2.08979e-05   
0.0310377   0.00312652   -1.99821e-05   
0.0310393   0.00312461   -1.88725e-05   
0.0310409   0.0031228   -1.75783e-05   
0.0310423   0.00312111   -1.6111e-05   
0.0310436   0.00311956   -1.44838e-05   
0.0310448   0.00311815   -1.2712e-05   
0.0310459   0.00311692   -1.08117e-05   
0.0310468   0.00311587   -8.80038e-06   
0.0310476   0.00311501   -6.69594e-06   
0.0310481   0.00311435   -4.51668e-06   
0.0310485   0.0031139   -2.28088e-06   
0.0310487   0.00311364   -6.75721e-09   
0.0310056   0.00316415   -9.19978e-09   
0.0310058   0.00316387   -2.77139e-06   
0.0310063   0.00316336   -5.49773e-06   
0.0310069   0.0031626   -8.15984e-06   
0.0310077   0.0031616   -1.07363e-05   
0.0310088   0.00316038   -1.32038e-05   
0.03101   0.00315894   -1.55395e-05   
0.0310114   0.0031573   -1.77214e-05   
0.0310129   0.00315547   -1.97285e-05   
0.0310146   0.00315348   -2.15415e-05   
0.0310164   0.00315134   -2.31431e-05   
0.0310184   0.00314909   -2.45184e-05   
0.0310204   0.00314675   -2.56553e-05   
0.0310224   0.00314435   -2.65448e-05   
0.0310245   0.00314192   -2.71815e-05   
0.0310266   0.00313948   -2.75626e-05   
0.0310286   0.00313708   -2.76914e-05   
0.0310307   0.00313468   -2.75689e-05   
0.0310328   0.00313221   -2.71948e-05   
0.0310349   0.00312975   -2.65646e-05   
0.0310369   0.00312731   -2.56809e-05   
0.031039   0.00312492   -2.4549e-05   
0.0310409   0.00312262   -2.31775e-05   
0.0310428   0.00312044   -2.15784e-05   
0.0310446   0.0031184   -1.97665e-05   
0.0310462   0.00311653   -1.77591e-05   
0.0310476   0.00311485   -1.55754e-05   
0.0310489   0.00311338   -1.32365e-05   
0.0310499   0.00311213   -1.07646e-05   
0.0310508   0.00311113   -8.1826e-06   
0.0310515   0.00311036   -5.51379e-06   
0.0310519   0.00310985   -2.78128e-06   
0.0310521   0.0031096   -7.87031e-09   
0.0310014   0.00316897   -1.03771e-08   
0.0310016   0.0031687   -3.30892e-06   
0.0310021   0.00316814   -6.56923e-06   
0.0310028   0.00316729   -9.75788e-06   
0.0310038   0.00316615   -1.28484e-05   
0.031005   0.00316475   -1.58119e-05   
0.0310064   0.00316308   -1.86205e-05   
0.031008   0.00316117   -2.12468e-05   
0.0310098   0.00315903   -2.36649e-05   
0.0310118   0.0031567   -2.58505e-05   
0.031014   0.00315421   -2.77823e-05   
0.0310162   0.00315157   -2.94416e-05   
0.0310185   0.00314883   -3.08136e-05   
0.0310209   0.00314602   -3.18868e-05   
0.0310234   0.00314318   -3.2655e-05   
0.0310258   0.00314034   -3.31146e-05   
0.0310282   0.00313755   -3.32702e-05   
0.0310306   0.00313475   -3.31232e-05   
0.031033   0.00313187   -3.26732e-05   
0.0310355   0.00312898   -3.19139e-05   
0.0310379   0.00312611   -3.08486e-05   
0.0310403   0.0031233   -2.94834e-05   
0.0310426   0.00312059   -2.78294e-05   
0.0310448   0.00311802   -2.5901e-05   
0.0310469   0.00311561   -2.37169e-05   
0.0310487   0.00311341   -2.12984e-05   
0.0310504   0.00311143   -1.86696e-05   
0.0310519   0.00310971   -1.58566e-05   
0.0310532   0.00310826   -1.28869e-05   
0.0310542   0.00310709   -9.78879e-06   
0.0310549   0.00310622   -6.59099e-06   
0.0310554   0.00310566   -3.3219e-06   
0.0310556   0.00310541   -9.1944e-09   
0.0309971   0.0031739   -1.179e-08   
0.0309973   0.00317364   -3.88301e-06   
0.0309979   0.00317303   -7.71298e-06   
0.0309987   0.00317209   -1.14629e-05   
0.0309997   0.00317081   -1.51009e-05   
0.0310011   0.00316921   -1.85925e-05   
0.0310027   0.0031673   -2.19041e-05   
0.0310046   0.00316511   -2.50027e-05   
0.0310067   0.00316267   -2.78572e-05   
0.031009   0.00315999   -3.04384e-05   
0.0310114   0.00315712   -3.27203e-05   
0.031014   0.00315409   -3.46806e-05   
0.0310167   0.00315094   -3.63014e-05   
0.0310194   0.00314772   -3.75691e-05   
0.0310222   0.00314447   -3.84761e-05   
0.031025   0.00314123   -3.90187e-05   
0.0310277   0.00313806   -3.92027e-05   
0.0310304   0.00313486   -3.90301e-05   
0.0310332   0.00313157   -3.85002e-05   
0.031036   0.00312825   -3.76048e-05   
0.0310389   0.00312494   -3.63478e-05   
0.0310416   0.0031217   -3.47361e-05   
0.0310443   0.00311856   -3.27828e-05   
0.0310468   0.00311558   -3.05055e-05   
0.0310492   0.00311279   -2.79263e-05   
0.0310514   0.00311024   -2.50712e-05   
0.0310533   0.00310795   -2.19692e-05   
0.031055   0.00310596   -1.86517e-05   
0.0310565   0.00310429   -1.51519e-05   
0.0310576   0.00310296   -1.15038e-05   
0.0310585   0.00310199   -7.7417e-06   
0.031059   0.00310137   -3.89974e-06   
0.0310592   0.00310111   -1.07745e-08   
0.0309928   0.0031789   -1.34131e-08   
0.030993   0.00317864   -4.4908e-06   
0.0309935   0.00317799   -8.92238e-06   
0.0309944   0.00317694   -1.32639e-05   
0.0309956   0.00317551   -1.74778e-05   
0.0309972   0.00317371   -2.15239e-05   
0.030999   0.00317156   -2.53629e-05   
0.0310011   0.00316908   -2.89561e-05   
0.0310035   0.00316631   -3.22667e-05   
0.0310061   0.00316328   -3.52607e-05   
0.0310089   0.00316003   -3.79076e-05   
0.0310118   0.00315661   -4.01813e-05   
0.0310148   0.00315305   -4.20607e-05   
0.031018   0.00314942   -4.35303e-05   
0.0310211   0.00314577   -4.45815e-05   
0.0310242   0.00314213   -4.52101e-05   
0.0310272   0.00313859   -4.54234e-05   
0.0310303   0.00313502   -4.52246e-05   
0.0310334   0.00313132   -4.46123e-05   
0.0310366   0.00312757   -4.35762e-05   
0.0310398   0.00312383   -4.21203e-05   
0.0310429   0.00312014   -4.02525e-05   
0.0310459   0.00311658   -3.79879e-05   
0.0310488   0.00311317   -3.53471e-05   
0.0310515   0.00310999   -3.23558e-05   
0.031054   0.00310707   -2.90444e-05   
0.0310562   0.00310446   -2.54469e-05   
0.0310582   0.00310219   -2.16004e-05   
0.0310598   0.00310029   -1.75435e-05   
0.0310611   0.00309878   -1.33164e-05   
0.031062   0.00309769   -8.95929e-06   
0.0310626   0.00309701   -4.51196e-06   
0.0310629   0.00309676   -1.25987e-08   
0.0309884   0.00318392   -1.54027e-08   
0.0309887   0.00318366   -5.12822e-06   
0.0309892   0.00318295   -1.01886e-05   
0.0309902   0.0031818   -1.51466e-05   
0.0309916   0.00318021   -1.9959e-05   
0.0309933   0.00317819   -2.45799e-05   
0.0309953   0.00317579   -2.8964e-05   
0.0309977   0.00317301   -3.3067e-05   
0.0310004   0.00316991   -3.68469e-05   
0.0310033   0.00316652   -4.02646e-05   
0.0310064   0.00316289   -4.32854e-05   
0.0310097   0.00315907   -4.58793e-05   
0.031013   0.00315512   -4.80226e-05   
0.0310165   0.00315109   -4.96978e-05   
0.03102   0.00314704   -5.08954e-05   
0.0310234   0.00314303   -5.16113e-05   
0.0310267   0.00313914   -5.18545e-05   
0.0310301   0.00313522   -5.16295e-05   
0.0310335   0.00313113   -5.0934e-05   
0.0310371   0.00312697   -4.97553e-05   
0.0310406   0.00312279   -4.80975e-05   
0.0310441   0.00311867   -4.5969e-05   
0.0310475   0.00311467   -4.33867e-05   
0.0310507   0.00311085   -4.03738e-05   
0.0310538   0.00310726   -3.69596e-05   
0.0310566   0.00310397   -3.31788e-05   
0.0310591   0.00310103   -2.90704e-05   
0.0310613   0.00309847   -2.46767e-05   