<?xml version="1.0"?> 
<VTKFile type="StructuredGrid" version="0.1" byte_order="BigEndian" >
  <StructuredGrid  WholeExtent="0 16 0 2 0 16">
  <Piece Extent="0 16 0 2 0 16">
    <PointData Vectors="Disp"  >
      <DataArray type="Float32" Name="Stress" NumberOfComponents="6" format="ascii">
0.000000   0.000000   -8850.446468   0.000000   -108297.251657   106667.992682   
0.000000   0.000000   -10438.562039   0.000000   -119260.137281   150216.238807   
0.000000   0.000000   -9459.973102   0.000000   -119786.503604   163217.395296   
0.000000   0.000000   -8463.391477   0.000000   -116153.271860   176035.569390   
0.000000   0.000000   -7441.001661   0.000000   -108146.797135   181233.684203   
0.000000   0.000000   -6515.809117   0.000000   -97411.966338   182141.094409   
0.000000   0.000000   -5711.113964   0.000000   -84908.771317   177978.355470   
0.000000   0.000000   -5047.733567   0.000000   -71611.845835   169855.979519   
0.000000   0.000000   -4522.852138   0.000000   -58297.474533   158154.428872   
0.000000   0.000000   -4123.773011   0.000000   -45578.540105   143564.999931   
0.000000   0.000000   -3831.284326   0.000000   -33928.655566   126606.959939   
0.000000   0.000000   -3624.601959   0.000000   -23689.964239   107804.840183   
0.000000   0.000000   -3483.966452   0.000000   -15104.632224   87602.024936   
0.000000   0.000000   -3392.416027   0.000000   -8330.237903   66395.363198   
0.000000   0.000000   -3336.585586   0.000000   -3461.458143   44537.297236   
0.000000   0.000000   -3306.992890   0.000000   -540.407845   22320.231890   
0.000000   0.000000   -3297.927861   0.000000   431.247733   41.048390   
0.000000   0.000000   1893.153960   0.000000   -60701.353332   -42754.591910   
0.000000   0.000000   -212.464314   0.000000   -16771.238853   23978.467503   
0.000000   0.000000   -87.791632   0.000000   -30749.361002   26990.395928   
0.000000   0.000000   -72.476736   0.000000   -27448.145562   34484.232209   
0.000000   0.000000   -36.889000   0.000000   -26310.991577   34898.981151   
0.000000   0.000000   -24.371371   0.000000   -21708.035892   33958.356942   
0.000000   0.000000   -13.130522   0.000000   -17573.768125   30772.620621   
0.000000   0.000000   -6.075996   0.000000   -13196.722915   26788.184847   
0.000000   0.000000   -0.975814   0.000000   -9483.993296   22324.545152   
0.000000   0.000000   2.372394   0.000000   -6350.679495   17924.400628   
0.000000   0.000000   4.541593   0.000000   -3932.498040   13849.426851   
0.000000   0.000000   5.865012   0.000000   -2133.634576   10290.791459   
0.000000   0.000000   6.633163   0.000000   -878.578818   7313.776574   
0.000000   0.000000   7.049358   0.000000   -48.693946   4901.870364   
0.000000   0.000000   7.254623   0.000000   456.224293   2974.901098   
0.000000   0.000000   7.349403   0.000000   723.438209   1383.180292   
0.000000   0.000000   7.349994   0.000000   813.039779   32.801866   
0.000000   0.000000   10008.200377   0.000000   79390.510760   -108235.621698   
0.000000   0.000000   9274.663308   0.000000   67583.373907   -103761.548184   
0.000000   0.000000   8309.219452   0.000000   64201.320377   -106225.437718   
0.000000   0.000000   7359.829174   0.000000   60301.672584   -109639.245627   
0.000000   0.000000   6461.244236   0.000000   56958.065293   -113565.950711   
0.000000   0.000000   5680.489622   0.000000   52459.196983   -115959.039778   
0.000000   0.000000   5032.295555   0.000000   47032.134223   -116209.256175   
0.000000   0.000000   4518.467503   0.000000   40621.734696   -113612.146316   
0.000000   0.000000   4126.716973   0.000000   33610.657620   -107963.685238   
0.000000   0.000000   3839.055112   0.000000   26380.345559   -99211.122819   
0.000000   0.000000   3635.393836   0.000000   19384.502509   -87537.510305   
0.000000   0.000000   3496.584747   0.000000   13042.010980   -73260.656281   
0.000000   0.000000   3406.085093   0.000000   7726.209275   -56824.933622   
0.000000   0.000000   3350.819070   0.000000   3731.703242   -38750.923403   
0.000000   0.000000   3321.507470   0.000000   1265.114707   -19637.799488   
0.000000   0.000000   3312.473962   0.000000   435.003603   24.462841   
0.000000   0.000000   3321.507470   0.000000   1265.114707   -19637.799488   
-319.562231   -855.505100   26471.363208   771.065467   -107983.432121   103171.053068   
-2061.185865   -1779.277105   8733.466548   2096.837267   -117064.301597   144287.902774   
-4239.138507   -1863.957227   -2471.266357   2932.853621   -117901.946899   157758.613558   
-5109.996729   -1397.408413   -9164.748911   2599.504980   -114479.054554   170929.923625   
-4761.043069   -726.176065   -12837.696405   1684.636251   -106765.850170   176754.749121   
-3576.811458   -115.048992   -14439.582798   554.729103   -96289.170910   178354.565135   
-1901.115658   357.431114   -14651.097513   -542.465127   -83998.993845   174917.699426   
14.249049   648.570516   -13966.729565   -1461.100213   -70852.987143   167477.005085   
1973.762504   773.902569   -12751.474180   -2124.337061   -57630.680206   156377.735681   
3838.556795   766.146940   -11273.043817   -2510.946353   -44954.549317   142289.063944   
5518.250730   668.344732   -9725.735514   -2633.795169   -33311.616614   125727.213043   
6960.203913   520.924957   -8249.057250   -2525.607332   -23057.355966   107223.681139   
8138.640797   358.653596   -6941.565628   -2227.957109   -14445.469140   87235.819407   
9044.141635   208.227099   -5871.238868   -1783.016435   -7642.506381   66177.364337   
9674.220042   89.008489   -5082.786508   -1232.576252   -2749.502684   44418.565569   
10037.180122   14.783130   -4602.790300   -633.742013   187.394738   22269.275765   
10223.679555   -8.537702   -4442.580337   -123.631983   1164.531632   41.264586   
814.355899   -780.438888   43048.445271   219.406523   -58589.883422   -42002.500265   
-456.090967   -531.462980   24171.003438   656.394187   -14082.383436   22341.970440   
-2266.065780   -593.112997   11492.452422   1297.123675   -28590.030590   26145.842099   
-3867.891004   -477.988663   3160.328716   1474.641939   -25711.788680   33938.154369   
-4958.811188   -408.251353   -2197.296184   1464.781153   -24840.514307   34692.498121   
-5626.437422   -338.245224   -5393.265582   1305.332519   -20396.717579   33975.692801   
-5967.627301   -268.761795   -7027.781048   1074.365393   -16316.602449   30963.633585   
-6077.075739   -206.436908   -7551.022074   823.409046   -11930.751142   27088.767294   
-6034.546470   -156.737687   -7318.797542   592.188358   -8164.305764   22685.067694   
-5906.651397   -119.755065   -6611.021186   399.201603   -4956.347264   18302.523382   
-5742.442493   -93.745409   -5647.594270   251.349441   -2456.490699   14213.393304   
-5575.929993   -76.009702   -4598.879542   146.624011   -579.962536   10617.523288   
-5428.350404   -64.162174   -3594.399112   78.959994   742.649031   7587.743996   
-5311.650341   -56.461605   -2729.682894   41.108921   1626.422489   5113.253803   
-5231.457930   -51.576564   -2071.703737   26.092555   2170.060052   3118.020122   
-5191.368603   -47.146446   -1663.127221   3.424734   2460.394647   1455.218642   
-5180.729839   -44.568453   -1525.309111   -122.401949   2557.810350   32.739024   
1502.589340   357.811159   39607.405358   -707.192871   77785.787683   -109216.644750   
57.316707   265.279515   25453.118654   -180.362995   65294.065433   -103276.730084   
-2173.382236   -196.689351   15481.145074   690.841085   61763.866520   -104900.429802   
-4764.153038   -731.699300   8438.629118   1687.431449   58015.245489   -107789.050430   
-7366.412571   -1154.852427   3648.935855   2557.875121   55037.307506   -111524.671312   
-9825.712028   -1380.503104   592.010405   3194.733326   50997.842763   -113946.917956   
-12047.869208   -1432.209612   -1138.184659   3580.273005   46043.518263   -114374.458213   
-13993.203722   -1345.530194   -1888.372866   3725.563587   40068.328855   -112034.769447   
-15653.206185   -1167.699336   -1950.700129   3661.142518   33427.230724   -106671.968708   
-17038.580412   -940.249494   -1570.684961   3421.420734   26493.059880   -98198.039098   
-18168.339596   -698.703854   -949.542729   3041.251462   19722.154064   -86774.959052   
-19063.267240   -470.317795   -247.757930   2551.964753   13542.447866   -72711.504349   
-19741.023788   -275.478308   411.591186   1982.548981   8338.384294   -56451.639172   
-20213.148517   -127.929993   939.270054   1357.440737   4415.120874   -38521.576704   
-20496.568173   -35.127044   1276.530067   681.565211   1987.612501   -19529.740101   
-20662.477074   -2.658012   1391.990503   -121.243219   1169.801779   24.118061   
-20496.568173   -35.127044   1276.530067   681.565211   1987.612501   -19529.740101   
-510.858388   -1536.261366   56207.400932   1399.195872   -103773.271990   99581.737404   
-3026.030024   -2915.800553   25731.128223   3369.912538   -111339.922379   137575.184576   
-6242.554169   -2803.357133   4542.276874   4427.578592   -111928.482632   150089.275724   
-7546.500237   -1857.850916   -9346.980013   3672.731952   -109081.105395   163243.067268   
-6737.935165   -625.299983   -17597.002465   1905.953827   -102235.199351   169680.994557   
-4417.929009   462.186250   -21734.059173   -213.192871   -92646.166453   172205.566538   
-1160.466230   1273.717201   -22955.923890   -2260.800428   -81124.031966   169835.180135   
2583.303061   1741.626113   -22215.059899   -3961.330106   -68573.295906   163454.339757   
6445.286836   1895.239145   -20242.671956   -5166.061646   -55769.522470   153324.582773   
10152.201021   1798.401230   -17598.151784   -5827.068384   -43358.156149   140063.053101   
13517.418884   1534.125621   -14700.800277   -5964.707487   -31860.383180   124168.937360   
16426.278085   1181.805565   -11860.755745   -5639.730075   -21667.771924   106177.524447   
18817.299762   810.169175   -9302.624310   -4932.812093   -13066.010105   86564.722704   
20663.108767   472.505999   -7184.634627   -3927.367487   -6247.276917   65769.976554   
21952.023822   207.664298   -5612.836350   -2707.354198   -1331.224604   44192.306326   
22696.477822   43.424095   -4651.606235   -1388.938771   1623.867786   22170.703071   
23078.695389   -8.330524   -4329.985156   -252.343657   2607.870714   41.379647   
1375.988790   -1460.448748   79230.717923   488.028631   -56336.101044   -41350.463017   
-81.044988   -790.362576   46902.514442   816.979904   -12188.809101   19465.867747   
-2432.682955   -544.373640   23499.080015   1385.807856   -26254.152193   23050.291097   
-4948.159959   -190.077070   7208.236813   1494.832748   -24007.934539   31220.976228   
-6817.253558   -57.320304   -3548.983011   1411.079495   -23647.825607   32647.474658   
-8072.710515   5.484474   -10119.016183   1161.553467   -19637.431250   32577.251420   
-8793.605952   38.481322   -13573.939785   820.430799   -15777.254486   30132.013643   
-9100.364961   55.748782   -14782.617623   459.140733   -11464.346448   26695.500863   
-9111.688362   55.247029   -14443.469219   139.027888   -7651.090636   22606.015805   
-8939.372661   41.093517   -13117.479542   -108.031686   -4329.269885   18424.407266   
-8673.592062   17.404950   -11249.704185   -269.258302   -1682.972533   14444.638994   
-8382.036943   -10.456207   -9188.026934   -347.468105   343.507241   10888.226604   
-8110.909132   -38.095526   -7198.453583   -353.421551   1802.010920   7848.328845   
-7889.234056   -62.313215   -5478.028591   -300.524367   2796.741331   5330.716560   
-7733.281578   -80.636468   -4165.324715   -202.130951   3421.181610   3271.975504   
-7654.129976   -88.434255   -3348.883829   -120.189745   3760.157246   1534.637675   
-7632.868258   -88.694981   -3073.263626   -249.822086   3874.054448   32.387837   
3344.120680   880.626044   68074.390556   -1661.523202   76943.393719   -107369.850713   
1849.468495   1185.496175   42455.953959   -1470.209023   64554.514124   -101354.682410   
-1676.367842   523.321308   23762.521138   -178.474869   60496.731497   -102142.205906   
-6292.159911   -506.314317   10497.246683   1621.263887   56495.314296   -104411.379826   
-11241.064826   -1431.193711   1493.877454   3373.651439   53537.858727   -107824.647587   
-16099.056189   -2023.396469   -4194.123550   4770.774483   49767.335847   -110249.787783   
-20599.233194   -2277.088648   -7352.130984   5717.723224   45217.210719   -110914.403169   
-24602.220321   -2244.907204   -8645.912185   6202.231878   39698.674121   -108965.720309   
-28051.258188   -2010.118696   -8638.113601   6265.224145   33501.082103   -104068.226285   
-30943.888435   -1654.336489   -7799.590489   5967.225351   26959.875409   -96076.057180   
-33306.192234   -1249.486092   -6515.992329   5375.280172   20513.262145   -85112.067591   
-35175.762991   -852.602236   -5094.735144   4553.054637   14585.546420   -71464.593691   
-36588.525257   -506.829041   -3771.683801   3560.772796   9565.341157   -55571.427892   
-37570.134695   -241.640936   -2717.936752   2449.948193   5765.361936   -37963.550992   
-38157.563390   -73.304975   -2046.202394   1232.009047   3408.078137   -19260.825774   
-38498.681387   -13.907772   -1816.555582   -247.446561   2612.926109   23.295821   
-38157.563390   -73.304975   -2046.202394   1232.009047   3408.078137   -19260.825774   
-647.218116   -2062.348953   81250.508720   1860.804399   -97673.196129   95532.023065   
-3785.948790   -3830.669039   41236.001138   4374.469862   -103880.381535   130081.850000   
-7627.327055   -3539.960561   12047.282392   5543.631262   -104204.595790   141098.023923   
-8995.923782   -2088.515398   -8100.852692   4270.613834   -101809.898865   153428.835466   
-7563.945768   -276.963624   -20785.025841   1619.320106   -96004.677111   160001.914925   
-4027.411303   1289.869214   -27639.751248   -1508.616034   -87688.853651   163238.026676   
856.160877   2427.878091   -30150.682038   -4510.577181   -77426.380879   161969.498060   
6471.210449   3050.378969   -29603.005978   -6991.421831   -65974.138518   156843.306546   
12293.965643   3204.052807   -27053.244743   -8728.844633   -54046.153156   147977.524025   
17919.989265   2985.889469   -23346.718838   -9645.017672   -42282.737979   135882.697718   
23061.294757   2520.916209   -19140.741496   -9764.015374   -31231.871782   121004.262112   
27532.241597   1929.765225   -14934.790676   -9173.121453   -21326.411322   103857.409922   
31226.386816   1317.476889   -11098.323774   -7992.556169   -12895.399082   84924.915035   
34090.339959   766.046723   -7895.708188   -6348.978556   -6169.576728   64669.026096   
36096.920546   335.533210   -5506.329861   -4371.571871   -1298.918769   43520.820529   
37259.109879   68.948009   -4040.363825   -2240.344525   1637.172749   21855.556762   
37853.595741   -15.210642   -3549.048610   -388.645058   2616.417206   41.440246   
1803.632585   -1969.099186   109581.223561   695.307705   -52271.663747   -38641.507971   
190.676309   -999.946470   67187.861596   970.818841   -9355.622654   17877.422325   
-2298.332262   -440.207090   35195.110212   1347.553130   -22769.101768   20710.691288   
-5115.300408   286.142440   12050.104254   1115.973827   -21102.662586   28517.714349   
-7308.682907   614.090008   -3786.710001   740.730658   -21442.653109   30241.489018   
-8841.390801   732.689633   -13775.316170   262.140615   -18246.263595   30623.851322   
-9757.950307   732.932309   -19250.975516   -245.209883   -15023.235792   28705.296584   
-10162.656498   669.686828   -21376.699523   -715.225763   -11177.937208   25739.714140   
-10178.703140   564.834543   -21141.329545   -1083.824243   -7645.825726   22036.094301   
-9937.511262   438.856783   -19365.408358   -1319.384170   -4465.107447   18138.942991   
-9555.032288   306.406801   -16716.368997   -1411.961380   -1857.878001   14350.857699   
-9125.108893   179.915109   -13724.988336   -1370.825641   190.105913   10908.198417   
-8716.571037   68.206665   -10802.483232   -1215.064524   1699.939198   7922.593227   
-8376.126728   -22.963352   -8256.411590   -966.643942   2752.636606   5417.044708   
-8132.580652   -89.506590   -6304.688686   -647.015151   3426.831887   3342.664151   
-8006.391582   -124.354351   -5087.465866   -352.556646   3798.559237   1573.801499   
-7971.583401   -132.220921   -4676.034566   -384.739414   3924.268808   31.812550   
4768.244019   1274.849156   93139.673176   -2350.836083   75233.511374   -102935.794210   
3622.705812   2015.127433   58342.676053   -2633.448130   63197.326359   -97410.744592   
-358.596017   1429.568225   32200.824947   -1394.252235   58760.106498   -97856.722458   
-6240.661835   136.362313   13211.173453   808.514638   54378.414972   -99672.022850   
-12982.622043   -1187.819853   88.482243   3197.104748   51201.031492   -102816.017610   
-19906.041215   -2146.484979   -8352.003635   5263.776425   47463.073246   -105269.242270   
-26525.428335   -2661.989962   -13151.119362   6788.791043   43130.987998   -106225.722547   
-32547.114319   -2768.336109   -15230.055550   7695.004949   37947.163264   -104763.712366   
-37816.681157   -2563.896804   -15384.619740   8002.334434   32125.605638   -100461.933441   
-42280.993862   -2158.687663   -14292.391504   7776.915359   25949.698705   -93103.337529   
-45948.304929   -1656.434045   -12515.463493   7106.377566   19824.181030   -82757.838211   
-48858.591858   -1142.872370   -10506.819701   6081.118193   14157.697061   -69682.960389   
-51059.053493   -684.623943   -8617.212138   4790.848591   9334.599677   -54304.231591   
-52586.966612   -328.050160   -7103.086938   3314.328542   5670.014619   -37155.684122   
-53499.634261   -99.293399   -6134.572592   1669.404523   3391.099590   -18870.079030   
-54026.998591   -17.752842   -5803.013650   -381.058767   2621.462279   22.078130   
-53499.634261   -99.293399   -6134.572592   1669.404523   3391.099590   -18870.079030   
-720.514962   -2443.826518   103547.800077   2201.605419   -90853.400589   90380.786712   
-4304.748697   -4516.300421   55686.871627   5124.161874   -95972.081561   121653.930810   
-8582.446563   -4111.062743   19809.571984   6391.941057   -96033.042727   131195.749557   
-9975.559479   -2267.238120   -5806.890411   4727.486436   -93963.415999   142448.276831   
-7983.728840   60.382487   -22649.595078   1299.686643   -89016.477413   148773.425695   
-3334.296651   2096.145962   -32347.487467   -2783.276746   -81910.290886   152386.019951   
3095.173862   3573.351132   -36471.732024   -6736.737167   -72994.031867   152022.132085   
10539.759630   4370.672364   -36496.889769   -10025.918921   -62839.648889   148108.611004   
18325.769895   4541.831504   -33715.310993   -12338.956430   -52046.121184   140597.439050   
25912.923771   4212.831424   -29219.334615   -13553.128654   -41201.604878   129856.619357   
32901.042483   3549.639654   -23896.194006   -13685.785019   -30848.435082   116240.974425   
39020.067354   2715.596331   -18444.362539   -12844.855052   -21442.929068   100214.624659   
44105.447098   1854.520174   -13395.205138   -11188.474055   -13350.748678   82245.147407   
48066.601645   1079.819254   -9137.485908   -8887.805829   -6841.623742   62804.491060   
50852.097116   475.151170   -5939.791293   -6120.568296   -2099.717108   42350.399350   
52470.345544   100.578086   -3969.855080   -3136.388118   769.839411   21294.883431   
53295.416637   -17.731894   -3308.239442   -534.239697   1729.019945   41.389954   
2113.539251   -2357.548484   135661.777168   862.606721   -48177.626734   -35836.860385   
452.163756   -1191.793353   85096.904589   1093.049748   -7244.754801   16317.756020   
-2030.392675   -381.861668   46083.674119   1291.553052   -19824.866382   18479.981476   
-4941.061940   674.057830   17151.468428   737.547727   -18586.867955   25737.035701   
-7238.055619   1245.934672   -3185.846706   4.251305   -19420.012844   27543.216722   
-8874.283814   1492.621510   -16414.793366   -794.113317   -16976.675602   28229.096443   
-9864.262529   1514.379363   -23969.480298   -1548.698108   -14438.560233   26772.488301   
-10295.307361   1398.063786   -27185.779435   -2181.950969   -11185.403344   24282.300635   
-10281.283275   1193.510854   -27258.923321   -2626.824586   -8086.840629   21012.597745   
-9958.037794   944.963333   -25223.990760   -2854.629025   -5198.186089   17469.440457   
-9455.285200   684.461038   -21950.148688   -2862.537806   -2761.062202   13948.389763   
-8885.668229   436.935716   -18146.226771   -2670.406757   -796.181949   10691.055893   
-8337.390575   219.421156   -14372.073623   -2309.409357   687.219601   7822.954945   
-7874.365254   42.672651   -11052.758664   -1813.240311   1743.718313   5383.187414   
-7539.002734   -86.100335   -8493.037472   -1214.125291   2432.925123   3338.424343   
-7362.461446   -156.493089   -6890.911581   -647.104193   2818.305739   1577.220380   
-7312.716515   -174.645678   -6348.470878   -528.835029   2949.846689   31.050028   
5862.989597   1546.460887   114507.082973   -2865.535418   72167.168206   -97086.603437   
5163.820624   2671.393982   72357.911061   -3597.649009   60674.459169   -92074.126143   
1083.522586   2234.012756   40109.978587   -2537.431813   56045.517621   -92309.193591   
-5547.827382   835.822551   16277.983331   -190.667325   51449.187604   -93775.489913   
-13611.401960   -755.358106   -482.076082   2599.581954   48090.685813   -96640.290024   
-22253.325767   -2018.032511   -11467.283092   5186.465795   44354.749958   -99080.892973   
-30790.080303   -2790.339038   -17874.760437   7229.467243   40184.201864   -100297.224394   
-38752.093202   -3066.057955   -20802.634849   8566.070634   35284.600099   -99333.452957   
-45851.563922   -2938.258075   -21228.729729   9170.800455   29807.510157   -95690.394193   
-51948.290464   -2532.109423   -20004.162618   9095.003032   23985.514836   -89075.632928   
-57003.200690   -1975.667953   -17848.127592   8432.564597   18184.958580   -79494.531473   
-61037.976467   -1380.338309   -15348.961701   7292.179479   12792.302284   -67161.200060   
-64098.275895   -835.631803   -12968.039912   5789.040297   8181.664796   -52478.165656   
-66225.997148   -405.309403   -11046.285818   4027.985499   4666.144765   -35975.143618   
-67496.071570   -126.142985   -9811.967201   2032.333045   2474.762237   -18293.567591   
-68225.424118   -25.527361   -9388.700576   -523.739786   1733.839860   20.596149   
-67496.071570   -126.142985   -9811.967201   2032.333045   2474.762237   -18293.567591   
-741.898749   -2704.903750   123170.859040   2416.640112   -83992.246798   84214.421822   
-4638.905604   -5014.113050   68874.275754   5645.630022   -88233.695949   112468.227196   
-9251.512634   -4568.361094   27351.418343   7037.139471   -88050.532795   120767.812989   
-10704.444249   -2445.138714   -3031.070457   5114.993820   -86149.687882   130941.656706   
-8315.467354   294.635412   -23670.797421   1088.594692   -81821.461645   136877.365761   
-2772.033210   2748.775494   -36151.042490   -3814.201760   -75661.239590   140616.645493   
4994.087730   4561.552262   -42057.384882   -8653.591011   -67899.709462   140910.275136   
14109.163934   5558.020072   -42948.723506   -12748.416507   -58960.303277   138030.568610   
23760.542471   5781.414434   -40266.497202   -15676.687902   -49317.107267   131797.288376   
33269.272253   5375.319506   -35289.798292   -17249.921558   -39476.628147   122434.504451   
42111.466792   4540.659495   -29104.566135   -17461.078297   -29942.142812   110189.692383   
49917.265340   3481.835143   -22598.661474   -16427.005204   -21165.664539   95451.846433   
56448.316716   2382.379214   -16469.634394   -14337.715201   -13530.417814   78650.411676   
61562.980307   1389.215627   -11241.651943   -11407.374001   -7334.208980   60248.826019   
65174.375057   611.929049   -7285.080137   -7864.041855   -2790.513680   40719.420251   
67279.335494   129.601445   -4835.974068   -4032.228136   -28.902914   20504.704541   
68350.950925   -22.670016   -4011.366720   -689.182476   896.527779   41.051699   
2337.633749   -2624.025638   158091.728531   974.893049   -44275.802807   -33081.323175   
680.310064   -1343.957974   100898.833905   1177.814630   -5804.605818   14718.475211   
-1756.089450   -367.023475   56065.689922   1257.434041   -17417.619945   16389.610991   
-4694.586512   950.872077   22228.391017   444.756403   -16422.343151   23068.938165   
-7039.715626   1746.568078   -2044.267926   -603.176559   -17502.633656   24886.173662   
-8730.720012   2144.487242   -18227.060852   -1725.527607   -15596.528982   25777.833350   
-9763.697099   2230.264130   -27797.914870   -2763.846406   -13595.764559   24716.504647   
-10208.436767   2100.242834   -32185.285540   -3608.594945   -10870.267484   22670.542802   
-10169.035031   1824.169590   -32721.120251   -4175.543741   -8201.580797   19838.931601   
-9780.212381   1468.663983   -30602.285819   -4431.517644   -5639.246633   16675.811832   
-9179.054062   1085.588290   -26867.498990   -4377.711223   -3422.059839   13457.419468   
-8491.665580   715.738673   -22387.488071   -4044.458866   -1591.113757   10420.308159   
-7822.321168   387.582478   -17865.873444   -3476.535488   -177.666095   7697.603144   
-7250.719786   119.353950   -13846.865686   -2721.587978   849.592007   5341.799201   
-6832.859023   -76.853292   -10726.547317   -1825.019632   1531.504501   3335.303334   
-6611.012193   -186.141234   -8765.562960   -964.878032   1917.921766   1583.216981   
-6547.738805   -215.563168   -8100.316200   -682.160321   2051.193024   30.059760   
6677.664522   1735.575629   132923.577199   -3230.083950   67864.068532   -90605.631499   
6402.341325   3158.757136   84780.083241   -4325.666574   57104.742780   -86042.525921   
2372.485163   2882.670237   47488.124634   -3475.692584   52532.800183   -86089.203223   
-4732.915312   1453.098649   19582.546635   -1094.095914   47953.476239   -87209.909006   
-13794.685436   -310.321689   -302.809488   1944.077632   44587.592320   -89727.288601   
-23872.793356   -1804.879583   -13538.222068   4915.784425   40961.968538   -92030.463898   
-34131.399341   -2799.161939   -21421.675526   7388.711815   37014.246471   -93376.842481   
-43936.635379   -3240.661308   -25175.613439   9118.690976   32438.498408   -92815.114379   
-52853.950392   -3205.291768   -25914.673797   10024.750912   27339.689539   -89793.443369   
-60631.140815   -2822.227821   -24630.354051   10129.630797   21907.793447   -83952.397787   
-67154.986174   -2236.235064   -22176.254669   9520.871055   16471.632953   -75228.898046   
-72405.835130   -1580.230393   -19262.068900   8316.314919   11392.679561   -63782.864021   
-76410.552731   -965.078121   -16452.051093   6651.263128   7030.665872   -49980.537729   
-79204.082853   -471.807232   -14167.998940   4654.241315   3692.797157   -34334.510955   
-80872.595353   -148.246413   -12695.144850   2352.279483   1607.124245   -17483.663209   
-81822.854774   -30.299559   -12189.261732   -675.537467   901.106153   18.947364   
-80872.595353   -148.246413   -12695.144850   2352.279483   1607.124245   -17483.663209   
-748.880590   -2890.727682   140377.892162   2570.374824   -76985.917623   77508.207310   
-4880.008798   -5385.512467   80655.308052   6034.255031   -80523.156139   102946.787281   
-9755.209366   -4938.416645   34350.789599   7549.017236   -80151.757982   110191.546741   
-11301.295475   -2627.215924   -127.754888   5475.694511   -78355.587494   119342.806822   
-8656.918343   433.253978   -24117.859217   1000.742995   -74484.658346   124819.270570   
-2432.376503   3243.178398   -39160.301500   -4575.623242   -69063.722540   128511.983834   
6435.576574   5368.475793   -46828.256912   -10200.529183   -62250.456940   129236.830999   
17008.075292   6574.992218   -48716.689310   -15061.275237   -54369.602295   127171.430070   
28361.296397   6880.886491   -46353.146793   -18618.238469   -45793.259465   122052.208065   
39685.235429   6434.432068   -41147.069306   -20599.904230   -36942.784116   113984.713369   
50327.863046   5462.566175   -34341.181758   -20956.575736   -28264.872575   103113.123626   
59807.854567   4206.311756   -26988.012452   -19799.019441   -20185.033360   89741.341955   
67798.647189   2887.838653   -19941.050679   -17339.478554   -13083.843396   74243.850453   
74093.468475   1688.517046   -13859.583100   -13830.553089   -7272.007574   57057.710882   
78557.905737   745.631023   -9220.660346   -9550.344974   -2982.480444   38654.242371   
81169.074579   159.048738   -6334.878534   -4902.010603   -363.893525   19494.668664   
82498.571130   -25.947688   -5360.683253   -851.584097   515.857510   40.220827   
2496.984567   -2819.124540   177570.761200   1059.372777   -40478.107728   -30320.107439   
849.183944   -1472.394832   114826.058841   1251.626144   -4802.788072   13162.907333   
-1538.608654   -387.743722   65100.228433   1256.384215   -15368.752105   14460.340881   
-4493.740038   1123.247074   27090.458634   259.788581   -14497.083264   20560.856136   
-6879.971259   2109.454396   -594.298870   -1044.346934   -15636.231815   22341.464666   
-8623.750022   2655.678870   -19414.188771   -2455.691047   -14085.685119   23368.385663   
-9704.185215   2827.148027   -30862.565860   -3776.193762   -12458.984414   22639.487701   
-10175.971289   2716.316166   -36421.351686   -4857.583278   -10144.466918   20996.608928   
-10132.382626   2400.929428   -37511.134975   -5585.989158   -7837.401883   18587.436883   
-9705.684784   1963.946238   -35446.693846   -5912.599896   -5573.479976   15810.226857   
-9037.332151   1475.382972   -31401.707902   -5835.093901   -3575.057016   12913.318950   
-8263.449701   992.836380   -26386.006957   -5390.133447   -1891.023527   10119.306308   
-7501.355180   558.239860   -21234.487722   -4634.850472   -565.073602   7561.920702   