<VTKFile type="UnstructuredGrid"  version="0.1"   > 
<UnstructuredGrid> 
<Piece  NumberOfPoints="  289" NumberOfCells=" 256"> 
<Points> 
<DataArray  type="Float64"  NumberOfComponents="3"  format="ascii" > 
16.069690 19.151111 0.000000 
15.233422 19.822786 0.000000 
14.363263 20.462079 0.000000 
13.461084 21.066543 0.000000 
12.528986 21.633874 0.000000 
11.569283 22.161943 0.000000 
10.584485 22.648812 0.000000 
9.577279 23.092763 0.000000 
8.550504 23.492316 0.000000 
7.507121 23.846240 0.000000 
6.450190 24.153572 0.000000 
5.382837 24.413625 0.000000 
4.308226 24.625986 0.000000 
3.229524 24.790526 0.000000 
2.149873 24.907389 0.000000 
1.072363 24.976990 0.000000 
0.000000 25.000000 0.000000 
16.069690 19.151111 1.562500 
15.233422 19.822786 1.562500 
14.363263 20.462079 1.562500 
13.461084 21.066543 1.562500 
12.528986 21.633874 1.562500 
11.569283 22.161943 1.562500 
10.584485 22.648812 1.562500 
9.577279 23.092763 1.562500 
8.550504 23.492316 1.562500 
7.507121 23.846240 1.562500 
6.450190 24.153572 1.562500 
5.382837 24.413625 1.562500 
4.308226 24.625986 1.562500 
3.229524 24.790526 1.562500 
2.149873 24.907389 1.562500 
1.072363 24.976990 1.562500 
0.000000 25.000000 1.562500 
16.069690 19.151111 3.125000 
15.233422 19.822786 3.125000 
14.363263 20.462079 3.125000 
13.461084 21.066543 3.125000 
12.528986 21.633874 3.125000 
11.569283 22.161943 3.125000 
10.584485 22.648812 3.125000 
9.577279 23.092763 3.125000 
8.550504 23.492316 3.125000 
7.507121 23.846240 3.125000 
6.450190 24.153572 3.125000 
5.382837 24.413625 3.125000 
4.308226 24.625986 3.125000 
3.229524 24.790526 3.125000 
2.149873 24.907389 3.125000 
1.072363 24.976990 3.125000 
0.000000 25.000000 3.125000 
16.069690 19.151111 4.687500 
15.233422 19.822786 4.687500 
14.363263 20.462079 4.687500 
13.461084 21.066543 4.687500 
12.528986 21.633874 4.687500 
11.569283 22.161943 4.687500 
10.584485 22.648812 4.687500 
9.577279 23.092763 4.687500 
8.550504 23.492316 4.687500 
7.507121 23.846240 4.687500 
6.450190 24.153572 4.687500 
5.382837 24.413625 4.687500 
4.308226 24.625986 4.687500 
3.229524 24.790526 4.687500 
2.149873 24.907389 4.687500 
1.072363 24.976990 4.687500 
0.000000 25.000000 4.687500 
16.069690 19.151111 6.250000 
15.233422 19.822786 6.250000 
14.363263 20.462079 6.250000 
13.461084 21.066543 6.250000 
12.528986 21.633874 6.250000 
11.569283 22.161943 6.250000 
10.584485 22.648812 6.250000 
9.577279 23.092763 6.250000 
8.550504 23.492316 6.250000 
7.507121 23.846240 6.250000 
6.450190 24.153572 6.250000 
5.382837 24.413625 6.250000 
4.308226 24.625986 6.250000 
3.229524 24.790526 6.250000 
2.149873 24.907389 6.250000 
1.072363 24.976990 6.250000 
0.000000 25.000000 6.250000 
16.069690 19.151111 7.812500 
15.233422 19.822786 7.812500 
14.363263 20.462079 7.812500 
13.461084 21.066543 7.812500 
12.528986 21.633874 7.812500 
11.569283 22.161943 7.812500 
10.584485 22.648812 7.812500 
9.577279 23.092763 7.812500 
8.550504 23.492316 7.812500 
7.507121 23.846240 7.812500 
6.450190 24.153572 7.812500 
5.382837 24.413625 7.812500 
4.308226 24.625986 7.812500 
3.229524 24.790526 7.812500 
2.149873 24.907389 7.812500 
1.072363 24.976990 7.812500 
0.000000 25.000000 7.812500 
16.069690 19.151111 9.375000 
15.233422 19.822786 9.375000 
14.363263 20.462079 9.375000 
13.461084 21.066543 9.375000 
12.528986 21.633874 9.375000 
11.569283 22.161943 9.375000 
10.584485 22.648812 9.375000 
9.577279 23.092763 9.375000 
8.550504 23.492316 9.375000 
7.507121 23.846240 9.375000 
6.450190 24.153572 9.375000 
5.382837 24.413625 9.375000 
4.308226 24.625986 9.375000 
3.229524 24.790526 9.375000 
2.149873 24.907389 9.375000 
1.072363 24.976990 9.375000 
0.000000 25.000000 9.375000 
16.069690 19.151111 10.937500 
15.233422 19.822786 10.937500 
14.363263 20.462079 10.937500 
13.461084 21.066543 10.937500 
12.528986 21.633874 10.937500 
11.569283 22.161943 10.937500 
10.584485 22.648812 10.937500 
9.577279 23.092763 10.937500 
8.550504 23.492316 10.937500 
7.507121 23.846240 10.937500 
6.450190 24.153572 10.937500 
5.382837 24.413625 10.937500 
4.308226 24.625986 10.937500 
3.229524 24.790526 10.937500 
2.149873 24.907389 10.937500 
1.072363 24.976990 10.937500 
0.000000 25.000000 10.937500 
16.069690 19.151111 12.500000 
15.233422 19.822786 12.500000 
14.363263 20.462079 12.500000 
13.461084 21.066543 12.500000 
12.528986 21.633874 12.500000 
11.569283 22.161943 12.500000 
10.584485 22.648812 12.500000 
9.577279 23.092763 12.500000 
8.550504 23.492316 12.500000 
7.507121 23.846240 12.500000 
6.450190 24.153572 12.500000 
5.382837 24.413625 12.500000 
4.308226 24.625986 12.500000 
3.229524 24.790526 12.500000 
2.149873 24.907389 12.500000 
1.072363 24.976990 12.500000 
0.000000 25.000000 12.500000 
16.069690 19.151111 14.062500 
15.233422 19.822786 14.062500 
14.363263 20.462079 14.062500 
13.461084 21.066543 14.062500 
12.528986 21.633874 14.062500 
11.569283 22.161943 14.062500 
10.584485 22.648812 14.062500 
9.577279 23.092763 14.062500 
8.550504 23.492316 14.062500 
7.507121 23.846240 14.062500 
6.450190 24.153572 14.062500 
5.382837 24.413625 14.062500 
4.308226 24.625986 14.062500 
3.229524 24.790526 14.062500 
2.149873 24.907389 14.062500 
1.072363 24.976990 14.062500 
0.000000 25.000000 14.062500 
16.069690 19.151111 15.625000 
15.233422 19.822786 15.625000 
14.363263 20.462079 15.625000 
13.461084 21.066543 15.625000 
12.528986 21.633874 15.625000 
11.569283 22.161943 15.625000 
10.584485 22.648812 15.625000 
9.577279 23.092763 15.625000 
8.550504 23.492316 15.625000 
7.507121 23.846240 15.625000 
6.450190 24.153572 15.625000 
5.382837 24.413625 15.625000 
4.308226 24.625986 15.625000 
3.229524 24.790526 15.625000 
2.149873 24.907389 15.625000 
1.072363 24.976990 15.625000 
0.000000 25.000000 15.625000 
16.069690 19.151111 17.187500 
15.233422 19.822786 17.187500 
14.363263 20.462079 17.187500 
13.461084 21.066543 17.187500 
12.528986 21.633874 17.187500 
11.569283 22.161943 17.187500 
10.584485 22.648812 17.187500 
9.577279 23.092763 17.187500 
8.550504 23.492316 17.187500 
7.507121 23.846240 17.187500 
6.450190 24.153572 17.187500 
5.382837 24.413625 17.187500 
4.308226 24.625986 17.187500 
3.229524 24.790526 17.187500 
2.149873 24.907389 17.187500 
1.072363 24.976990 17.187500 
0.000000 25.000000 17.187500 
16.069690 19.151111 18.750000 
15.233422 19.822786 18.750000 
14.363263 20.462079 18.750000 
13.461084 21.066543 18.750000 
12.528986 21.633874 18.750000 
11.569283 22.161943 18.750000 
10.584485 22.648812 18.750000 
9.577279 23.092763 18.750000 
8.550504 23.492316 18.750000 
7.507121 23.846240 18.750000 
6.450190 24.153572 18.750000 
5.382837 24.413625 18.750000 
4.308226 24.625986 18.750000 
3.229524 24.790526 18.750000 
2.149873 24.907389 18.750000 
1.072363 24.976990 18.750000 
0.000000 25.000000 18.750000 
16.069690 19.151111 20.312500 
15.233422 19.822786 20.312500 
14.363263 20.462079 20.312500 
13.461084 21.066543 20.312500 
12.528986 21.633874 20.312500 
11.569283 22.161943 20.312500 
10.584485 22.648812 20.312500 
9.577279 23.092763 20.312500 
8.550504 23.492316 20.312500 
7.507121 23.846240 20.312500 
6.450190 24.153572 20.312500 
5.382837 24.413625 20.312500 
4.308226 24.625986 20.312500 
3.229524 24.790526 20.312500 
2.149873 24.907389 20.312500 
1.072363 24.976990 20.312500 
0.000000 25.000000 20.312500 
16.069690 19.151111 21.875000 
15.233422 19.822786 21.875000 
14.363263 20.462079 21.875000 
13.461084 21.066543 21.875000 
12.528986 21.633874 21.875000 
11.569283 22.161943 21.875000 
10.584485 22.648812 21.875000 
9.577279 23.092763 21.875000 
8.550504 23.492316 21.875000 
7.507121 23.846240 21.875000 
6.450190 24.153572 21.875000 
5.382837 24.413625 21.875000 
4.308226 24.625986 21.875000 
3.229524 24.790526 21.875000 
2.149873 24.907389 21.875000 
1.072363 24.976990 21.875000 
0.000000 25.000000 21.875000 
16.069690 19.151111 23.437500 
15.233422 19.822786 23.437500 
14.363263 20.462079 23.437500 
13.461084 21.066543 23.437500 
12.528986 21.633874 23.437500 
11.569283 22.161943 23.437500 
10.584485 22.648812 23.437500 
9.577279 23.092763 23.437500 
8.550504 23.492316 23.437500 
7.507121 23.846240 23.437500 
6.450190 24.153572 23.437500 
5.382837 24.413625 23.437500 
4.308226 24.625986 23.437500 
3.229524 24.790526 23.437500 
2.149873 24.907389 23.437500 
1.072363 24.976990 23.437500 
0.000000 25.000000 23.437500 
16.069690 19.151111 25.000000 
15.233422 19.822786 25.000000 
14.363263 20.462079 25.000000 
13.461084 21.066543 25.000000 
12.528986 21.633874 25.000000 
11.569283 22.161943 25.000000 
10.584485 22.648812 25.000000 
9.577279 23.092763 25.000000 
8.550504 23.492316 25.000000 
7.507121 23.846240 25.000000 
6.450190 24.153572 25.000000 
5.382837 24.413625 25.000000 
4.308226 24.625986 25.000000 
3.229524 24.790526 25.000000 
2.149873 24.907389 25.000000 
1.072363 24.976990 25.000000 
0.000000 25.000000 25.000000 
</DataArray> 
</Points> 
<Cells> 
<DataArray  type="Int32"  Name="connectivity"  format="ascii"> 
0 1 18 17 
1 2 19 18 
2 3 20 19 
3 4 21 20 
4 5 22 21 
5 6 23 22 
6 7 24 23 
7 8 25 24 
8 9 26 25 
9 10 27 26 
10 11 28 27 
11 12 29 28 
12 13 30 29 
13 14 31 30 
14 15 32 31 
15 16 33 32 
17 18 35 34 
18 19 36 35 
19 20 37 36 
20 21 38 37 
21 22 39 38 
22 23 40 39 
23 24 41 40 
24 25 42 41 
25 26 43 42 
26 27 44 43 
27 28 45 44 
28 29 46 45 
29 30 47 46 
30 31 48 47 
31 32 49 48 
32 33 50 49 
34 35 52 51 
35 36 53 52 
36 37 54 53 
37 38 55 54 
38 39 56 55 
39 40 57 56 
40 41 58 57 
41 42 59 58 
42 43 60 59 
43 44 61 60 
44 45 62 61 
45 46 63 62 
46 47 64 63 
47 48 65 64 
48 49 66 65 
49 50 67 66 
51 52 69 68 
52 53 70 69 
53 54 71 70 
54 55 72 71 
55 56 73 72 
56 57 74 73 
57 58 75 74 
58 59 76 75 
59 60 77 76 
60 61 78 77 
61 62 79 78 
62 63 80 79 
63 64 81 80 
64 65 82 81 
65 66 83 82 
66 67 84 83 
68 69 86 85 
69 70 87 86 
70 71 88 87 
71 72 89 88 
72 73 90 89 
73 74 91 90 
74 75 92 91 
75 76 93 92 
76 77 94 93 
77 78 95 94 
78 79 96 95 
79 80 97 96 
80 81 98 97 
81 82 99 98 
82 83 100 99 
83 84 101 100 
85 86 103 102 
86 87 104 103 
87 88 105 104 
88 89 106 105 
89 90 107 106 
90 91 108 107 
91 92 109 108 
92 93 110 109 
93 94 111 110 
94 95 112 111 
95 96 113 112 
96 97 114 113 
97 98 115 114 
98 99 116 115 
99 100 117 116 
100 101 118 117 
102 103 120 119 
103 104 121 120 
104 105 122 121 
105 106 123 122 
106 107 124 123 
107 108 125 124 
108 109 126 125 
109 110 127 126 
110 111 128 127 
111 112 129 128 
112 113 130 129 
113 114 131 130 
114 115 132 131 
115 116 133 132 
116 117 134 133 
117 118 135 134 
119 120 137 136 
120 121 138 137 
121 122 139 138 
122 123 140 139 
123 124 141 140 
124 125 142 141 
125 126 143 142 
126 127 144 143 
127 128 145 144 
128 129 146 145 
129 130 147 146 
130 131 148 147 
131 132 149 148 
132 133 150 149 
133 134 151 150 
134 135 152 151 
136 137 154 153 
137 138 155 154 
138 139 156 155 
139 140 157 156 
140 141 158 157 
141 142 159 158 
142 143 160 159 
143 144 161 160 
144 145 162 161 
145 146 163 162 
146 147 164 163 
147 148 165 164 
148 149 166 165 
149 150 167 166 
150 151 168 167 
151 152 169 168 
153 154 171 170 
154 155 172 171 
155 156 173 172 
156 157 174 173 
157 158 175 174 
158 159 176 175 
159 160 177 176 
160 161 178 177 
161 162 179 178 
162 163 180 179 
163 164 181 180 
164 165 182 181 
165 166 183 182 
166 167 184 183 
167 168 185 184 
168 169 186 185 
170 171 188 187 
171 172 189 188 
172 173 190 189 
173 174 191 190 
174 175 192 191 
175 176 193 192 
176 177 194 193 
177 178 195 194 
178 179 196 195 
179 180 197 196 
180 181 198 197 
181 182 199 198 
182 183 200 199 
183 184 201 200 
184 185 202 201 
185 186 203 202 
187 188 205 204 
188 189 206 205 
189 190 207 206 
190 191 208 207 
191 192 209 208 
192 193 210 209 
193 194 211 210 
194 195 212 211 
195 196 213 212 
196 197 214 213 
197 198 215 214 
198 199 216 215 
199 200 217 216 
200 201 218 217 
201 202 219 218 
202 203 220 219 
204 205 222 221 
205 206 223 222 
206 207 224 223 
207 208 225 224 
208 209 226 225 
209 210 227 226 
210 211 228 227 
211 212 229 228 
212 213 230 229 
213 214 231 230 
214 215 232 231 
215 216 233 232 
216 217 234 233 
217 218 235 234 
218 219 236 235 
219 220 237 236 
221 222 239 238 
222 223 240 239 
223 224 241 240 
224 225 242 241 
225 226 243 242 
226 227 244 243 
227 228 245 244 
228 229 246 245 
229 230 247 246 
230 231 248 247 
231 232 249 248 
232 233 250 249 
233 234 251 250 
234 235 252 251 
235 236 253 252 
236 237 254 253 
238 239 256 255 
239 240 257 256 
240 241 258 257 
241 242 259 258 
242 243 260 259 
243 244 261 260 
244 245 262 261 
245 246 263 262 
246 247 264 263 
247 248 265 264 
248 249 266 265 
249 250 267 266 
250 251 268 267 
251 252 269 268 
252 253 270 269 
253 254 271 270 
255 256 273 272 
256 257 274 273 
257 258 275 274 
258 259 276 275 
259 260 277 276 
260 261 278 277 
261 262 279 278 
262 263 280 279 
263 264 281 280 
264 265 282 281 
265 266 283 282 
266 267 284 283 
267 268 285 284 
268 269 286 285 
269 270 287 286 
270 271 288 287 
</DataArray> 
<DataArray  type="Int32"  Name="offsets"  format="ascii"> 
4 
8 
12 
16 
20 
24 
28 
32 
36 
40 
44 
48 
52 
56 
60 
64 
68 
72 
76 
80 
84 
88 
92 
96 
100 
104 
108 
112 
116 
120 
124 
128 
132 
136 
140 
144 
148 
152 
156 
160 
164 
168 
172 
176 
180 
184 
188 
192 
196 
200 
204 
208 
212 
216 
220 
224 
228 
232 
236 
240 
244 
248 
252 
256 
260 
264 
268 
272 
276 
280 
284 
288 
292 
296 
300 
304 
308 
312 
316 
320 
324 
328 
332 
336 
340 
344 
348 
352 
356 
360 
364 
368 
372 
376 
380 
384 
388 
392 
396 
400 
404 
408 
412 
416 
420 
424 
428 
432 
436 
440 
444 
448 
452 
456 
460 
464 
468 
472 
476 
480 
484 
488 
492 
496 
500 
504 
508 
512 
516 
520 
524 
528 
532 
536 
540 
544 
548 
552 
556 
560 
564 
568 
572 
576 
580 
584 
588 
592 
596 
600 
604 
608 
612 
616 
620 
624 
628 
632 
636 
640 
644 
648 
652 
656 
660 
664 
668 
672 
676 
680 
684 
688 
692 
696 
700 
704 
708 
712 
716 
720 
724 
728 
732 
736 
740 
744 
748 
752 
756 
760 
764 
768 
772 
776 
780 
784 
788 
792 
796 
800 
804 
808 
812 
816 
820 
824 
828 
832 
836 
840 
844 
848 
852 
856 
860 
864 
868 
872 
876 
880 
884 
888 
892 
896 
900 
904 
908 
912 
916 
920 
924 
928 
932 
936 
940 
944 
948 
952 
956 
960 
964 
968 
972 
976 
980 
984 
988 
992 
996 
1000 
1004 
1008 
1012 
1016 
1020 
1024 
</DataArray> 
<DataArray  type="UInt8"  Name="types"  format="ascii"> 
9 
9 
9 
9 
9 
9 
9 
9 
9 
9 
9 
9 
9 
9 
9 
9 
9 
9 
9 
9 
9 
9 
9 
9 
9 
9 
9 
9 
9 
9 
9 
9 
9 
9 
9 
9 
9 
9 
9 
9 
9 
9 
9 
9 
9 
9 
9 
9 
9 
9 
9 
9 
9 
9 
9 
9 
9 
9 
9 
9 
9 
9 
9 
9 
9 
9 
9 
9 
9 
9 
9 
9 
9 
9 
9 
9 
9 
9 
9 
9 
9 
9 
9 
9 
9 
9 
9 
9 
9 
9 
9 
9 
9 
9 
9 
9 
9 
9 
9 
9 
9 
9 
9 
9 
9 
9 
9 
9 
9 
9 
9 
9 
9 
9 
9 
9 
9 
9 
9 
9 
9 
9 
9 
9 
9 
9 
9 
9 
9 
9 
9 
9 
9 
9 
9 
9 
9 
9 
9 
9 
9 
9 
9 
9 
9 
9 
9 
9 
9 
9 
9 
9 
9 
9 
9 
9 
9 
9 
9 
9 
9 
9 
9 
9 
9 
9 
9 
9 
9 
9 
9 
9 
9 
9 
9 
9 
9 
9 
9 
9 
9 
9 
9 
9 
9 
9 
9 
9 
9 
9 
9 
9 
9 
9 
9 
9 
9 
9 
9 
9 
9 
9 
9 
9 
9 
9 
9 
9 
9 
9 
9 
9 
9 
9 
9 
9 
9 
9 
9 
9 
9 
9 
9 
9 
9 
9 
9 
9 
9 
9 
9 
9 
9 
9 
9 
9 
9 
9 
9 
9 
9 
9 
9 
9 
9 
9 
9 
9 
9 
9 
9 
9 
9 
9 
9 
9 
</DataArray> 
</Cells> 
<PointData  Vectors="sigma"> 
<DataArray  type="Float64"  Name="U" NumberOfComponents="3" format="ascii"> 
0.000000   0.000000   -0.012628   
0.000000   0.000000   -0.007880   
0.000000   0.000000   -0.004196   
0.000000   0.000000   -0.001438   
0.000000   0.000000   0.000525   
0.000000   0.000000   0.001816   
0.000000   0.000000   0.002553   
0.000000   0.000000   0.002850   
0.000000   0.000000   0.002812   
0.000000   0.000000   0.002538   
0.000000   0.000000   0.002115   
0.000000   0.000000   0.001623   
0.000000   0.000000   0.001127   
0.000000   0.000000   0.000683   
0.000000   0.000000   0.000334   
0.000000   0.000000   0.000111   
0.000000   0.000000   0.000034   
-0.017786   -0.033275   -0.012537   
-0.015506   -0.030438   -0.007832   
-0.013306   -0.027450   -0.004176   
-0.011200   -0.024320   -0.001435   
-0.009218   -0.021086   0.000517   
-0.007398   -0.017807   0.001802   
-0.005770   -0.014550   0.002536   
-0.004355   -0.011384   0.002833   
-0.003165   -0.008375   0.002796   
-0.002198   -0.005582   0.002524   
-0.001444   -0.003054   0.002105   
-0.000883   -0.000830   0.001615   
-0.000491   0.001059   0.001122   
-0.000239   0.002593   0.000680   
-0.000095   0.003758   0.000333   
-0.000026   0.004549   0.000111   
-0.000000   0.004963   0.000035   
-0.035092   -0.065746   -0.012278   
-0.030587   -0.060139   -0.007692   
-0.026245   -0.054237   -0.004113   
-0.022092   -0.048056   -0.001424   
-0.018185   -0.041668   0.000495   
-0.014594   -0.035184   0.001762   
-0.011379   -0.028736   0.002488   
-0.008584   -0.022459   0.002783   
-0.006230   -0.016486   0.002750   
-0.004317   -0.010934   0.002485   
-0.002825   -0.005903   0.002073   
-0.001718   -0.001475   0.001592   
-0.000946   0.002289   0.001107   
-0.000452   0.005346   0.000672   
-0.000173   0.007670   0.000330   
-0.000044   0.009248   0.000112   
-0.000000   0.010082   0.000036   
-0.051645   -0.096920   -0.011876   
-0.045012   -0.088661   -0.007464   
-0.038628   -0.079978   -0.004009   
-0.032526   -0.070889   -0.001403   
-0.026788   -0.061493   0.000463   
-0.021509   -0.051943   0.001698   
-0.016777   -0.042429   0.002410   
-0.012657   -0.033152   0.002702   
-0.009182   -0.024306   0.002675   
-0.006355   -0.016069   0.002419   
-0.004148   -0.008595   0.002021   
-0.002510   -0.002006   0.001554   
-0.001370   0.003600   0.001082   
-0.000644   0.008158   0.000658   
-0.000238   0.011623   0.000325   
-0.000056   0.013979   0.000112   
-0.000000   0.015226   0.000038   
-0.067290   -0.126487   -0.011352   
-0.058651   -0.115731   -0.007158   
-0.050347   -0.104434   -0.003862   
-0.042419   -0.092616   -0.001368   
-0.034964   -0.080395   0.000424   
-0.028099   -0.067962   0.001615   
-0.021937   -0.055553   0.002305   
-0.016560   -0.043427   0.002592   
-0.012018   -0.031839   0.002571   
-0.008316   -0.021026   0.002330   
-0.005422   -0.011194   0.001949   
-0.003273   -0.002514   0.001500   
-0.001778   0.004882   0.001047   
-0.000827   0.010901   0.000639   
-0.000299   0.015481   0.000318   
-0.000066   0.018596   0.000112   
-0.000000   0.020245   0.000041   
-0.081921   -0.154231   -0.010724   
-0.071415   -0.141150   -0.006783   
-0.061326   -0.127423   -0.003677   
-0.051704   -0.113073   -0.001319   
-0.042656   -0.098233   0.000382   
-0.034318   -0.083120   0.001516   
-0.026822   -0.068011   0.002177   
-0.020270   -0.053216   0.002456   
-0.014722   -0.039045   0.002442   
-0.010192   -0.025793   0.002216   
-0.006645   -0.013717   0.001857   
-0.004007   -0.003037   0.001432   
-0.002171   0.006077   0.001002   
-0.001004   0.013502   0.000614   
-0.000358   0.019158   0.000308   
-0.000076   0.023005   0.000112   
-0.000000   0.025043   0.000045   
-0.095460   -0.179984   -0.010005   
-0.083234   -0.164761   -0.006347   
-0.071504   -0.148798   -0.003455   
-0.060324   -0.132123   -0.001254   
-0.049813   -0.114876   0.000338   
-0.040121   -0.097298   0.001405   
-0.031395   -0.079700   0.002030   
-0.023754   -0.062433   0.002297   
-0.017271   -0.045860   0.002289   
-0.011966   -0.030326   0.002081   
-0.007805   -0.016144   0.001747   
-0.004706   -0.003576   0.001350   
-0.002546   0.007166   0.000947   
-0.001174   0.015928   0.000583   
-0.000415   0.022607   0.000295   
-0.000086   0.027154   0.000111   
-0.000000   0.029561   0.000048   
-0.107848   -0.203609   -0.009208   
-0.094055   -0.186436   -0.005856   
-0.080831   -0.168439   -0.003201   
-0.068234   -0.149647   -0.001174   
-0.056391   -0.130211   0.000295   
-0.045465   -0.110390   0.001283   
-0.035617   -0.090521   0.001865   
-0.026980   -0.070993   0.002118   
-0.019639   -0.052213   0.002115   
-0.013619   -0.034575   0.001927   
-0.008890   -0.018439   0.001620   
-0.005361   -0.004115   0.001255   
-0.002899   0.008147   0.000882   
-0.001334   0.018160   0.000546   
-0.000469   0.025800   0.000280   
-0.000096   0.031003   0.000109   
-0.000000   0.033759   0.000051   
-0.119035   -0.224996   -0.008343   
-0.103833   -0.206069   -0.005317   
-0.089265   -0.186242   -0.002916   
-0.075394   -0.165548   -0.001081   
-0.062355   -0.144145   0.000254   
-0.050319   -0.122305   0.001154   
-0.039461   -0.100390   0.001687   
-0.029924   -0.078820   0.001921   
-0.021804   -0.058040   0.001922   
-0.015135   -0.038489   0.001755   
-0.009886   -0.020570   0.001478   
-0.005964   -0.004638   0.001147   
-0.003225   0.009020   0.000809   
-0.001482   0.020186   0.000503   
-0.000519   0.028712   0.000261   
-0.000105   0.034521   0.000106   
-0.000000   0.037598   0.000052   
-0.128983   -0.244054   -0.007419   
-0.112533   -0.223573   -0.004738   
-0.096773   -0.202124   -0.002607   
-0.081774   -0.179745   -0.000974   
-0.067675   -0.156599   0.000216   
-0.054656   -0.132970   0.001020   
-0.042900   -0.109240   0.001498   
-0.032563   -0.085853   0.001710   
-0.023749   -0.063289   0.001714   
-0.016499   -0.042026   0.001567   
-0.010784   -0.022507   0.001322   
-0.006509   -0.005128   0.001028   
-0.003519   0.009788   0.000727   
-0.001616   0.021994   0.000454   
-0.000564   0.031321   0.000238   
-0.000113   0.037677   0.000100   
-0.000000   0.041044   0.000052   
-0.137661   -0.260708   -0.006446   
-0.120124   -0.238874   -0.004122   
-0.103329   -0.216015   -0.002274   
-0.087348   -0.192171   -0.000856   
-0.072327   -0.167510   0.000179   
-0.058453   -0.142324   0.000881   
-0.045915   -0.117011   0.001299   
-0.034879   -0.092039   0.001486   
-0.025459   -0.067915   0.001492   
-0.017699   -0.045150   0.001366   
-0.011575   -0.024226   0.001154   
-0.006988   -0.005572   0.000899   
-0.003778   0.010453   0.000637   
-0.001733   0.023576   0.000400   
-0.000604   0.033608   0.000213   
-0.000120   0.040445   0.000093   
-0.000000   0.044067   0.000051   
-0.145042   -0.274895   -0.005430   
-0.126584   -0.251913   -0.003477   
-0.108911   -0.227858   -0.001922   
-0.092097   -0.202771   -0.000728   
-0.076294   -0.176823   0.000145   
-0.061692   -0.150316   0.000738   
-0.048490   -0.123658   0.001093   
-0.036860   -0.097336   0.001252   
-0.026922   -0.071881   0.001259   
-0.018727   -0.047833   0.001154   
-0.012252   -0.025704   0.000976   
-0.007398   -0.005958   0.000761   
-0.003999   0.011019   0.000541   
-0.001833   0.024926   0.000341   
-0.000638   0.035557   0.000183   
-0.000126   0.042801   0.000083   
-0.000000   0.046636   0.000048   
-0.151108   -0.286564   -0.004381   
-0.131893   -0.262641   -0.002808   
-0.113499   -0.237605   -0.001554   
-0.096002   -0.211497   -0.000591   
-0.079557   -0.184495   0.000114   
-0.064359   -0.156903   0.000593   
-0.050612   -0.129140   0.000880   
-0.038493   -0.101708   0.001010   
-0.028128   -0.075157   0.001016   
-0.019574   -0.050048   0.000932   
-0.012809   -0.026924   0.000789   
-0.007734   -0.006272   0.000616   
-0.004179   0.011492   0.000438   
-0.001913   0.026043   0.000278   
-0.000664   0.037159   0.000151   
-0.000130   0.044724   0.000071   
-0.000000   0.048723   0.000043   
-0.155839   -0.295681   -0.003305   
-0.136035   -0.271022   -0.002119   
-0.117079   -0.245219   -0.001174   
-0.099050   -0.218315   -0.000448   
-0.082104   -0.190488   0.000084   
-0.066442   -0.162050   0.000446   
-0.052270   -0.133426   0.000664   
-0.039770   -0.105127   0.000762   
-0.029071   -0.077718   0.000767   
-0.020236   -0.051779   0.000704   
-0.013243   -0.027870   0.000596   
-0.007994   -0.006505   0.000466   
-0.004315   0.011878   0.000332   
-0.001973   0.026930   0.000210   
-0.000683   0.038410   0.000116   
-0.000134   0.046197   0.000056   
-0.000000   0.050295   0.000036   
-0.159240   -0.302219   -0.002205   
-0.139009   -0.277032   -0.001414   
-0.119647   -0.250678   -0.000784   
-0.101234   -0.223201   -0.000300   
-0.083930   -0.194783   0.000055   
-0.067934   -0.165739   0.000297   
-0.053458   -0.136497   0.000443   
-0.040685   -0.107578   0.000509   
-0.029748   -0.079553   0.000513   
-0.020709   -0.053016   0.000471   
-0.013552   -0.028540   0.000399   
-0.008176   -0.006655   0.000311   
-0.004408   0.012181   0.000222   
-0.002009   0.027596   0.000141   
-0.000692   0.039322   0.000078   
-0.000134   0.047212   0.000039   
-0.000000   0.051291   0.000027   
-0.161303   -0.306194   -0.001097   
-0.140819   -0.280684   -0.000703   
-0.121212   -0.253992   -0.000391   
-0.102567   -0.226167   -0.000150   
-0.085044   -0.197392   0.000027   
-0.068845   -0.167980   0.000148   
-0.054183   -0.138365   0.000221   
-0.041243   -0.109068   0.000254   
-0.030160   -0.080670   0.000256   
-0.020997   -0.053766   0.000235   
-0.013738   -0.028941   0.000199   
-0.008284   -0.006733   0.000155   
-0.004459   0.012388   0.000110   
-0.002025   0.028036   0.000070   
-0.000691   0.039912   0.000039   
-0.000131   0.047810   0.000020   
-0.000000   0.051628   0.000015   
-0.162080   -0.307584   -0.000000   
-0.141518   -0.281997   -0.000000   
-0.121828   -0.255216   -0.000000   
-0.103095   -0.227280   -0.000000   
-0.085486   -0.198378   0.000000   
-0.069206   -0.168831   0.000000   
-0.054468   -0.139077   0.000000   
-0.041460   -0.109639   0.000000   
-0.030318   -0.081098   0.000000   
-0.021106   -0.054055   0.000000   
-0.013806   -0.029096   0.000000   
-0.008320   -0.006762   0.000000   
-0.004474   0.012472   0.000000   
-0.002026   0.028215   0.000000   
-0.000685   0.040156   0.000000   
-0.000127   0.048049   0.000000   
-0.000000   0.051540   0.000000   
</DataArray> 
</PointData> 
</Piece> 
</UnstructuredGrid> 
</VTKFile> 
