<?xml version="1.0"?> 
<VTKFile type="UnstructuredGrid" version="0.1"> 
<UnstructuredGrid> 
<Piece NumberOfPoints="2800" NumberOfCells="1792"> 
<PointData Vectors="fields">
<DataArray type="Float32" Name="stress" format="ascii" NumberOfComponents="3"> 
109.89 2.86137e-08 -1.28962e-10 109.89 -1.65175e-08 1.16867e-08 109.89 2.29305e-08 1.387e-08 109.89 -2.90955e-09 2.11864e-08 109.89 1.21635e-08 2.39443e-08 109.89 -1.73868e-08 6.77491e-09 109.89 7.08659e-09 2.58129e-08 109.89 -1.18206e-08 1.21509e-08 109.89 8.45605e-09 2.47367e-08 109.89 2.73126e-10 1.96329e-08 109.89 3.49242e-08 5.18827e-10 109.89 -2.03639e-08 9.47056e-10 109.89 2.76465e-08 9.4874e-09 109.89 -8.52368e-09 9.31143e-09 109.89 1.07392e-08 1.41024e-08 109.89 -1.83509e-08 7.06576e-10 109.89 7.15335e-09 5.56114e-10 109.89 -1.49825e-08 -3.63702e-09 109.89 -5.23752e-10 -3.55394e-09 109.89 -8.9226e-09 -5.89102e-09 109.89 9.76947e-09 -8.55963e-10 109.89 -7.67115e-09 -9.00102e-09 109.89 6.819e-09 -2.54326e-09 109.89 -8.45223e-09 -7.99111e-09 109.89 -1.89836e-09 -5.47233e-09 109.89 -1.39778e-08 -9.36578e-09 109.89 -1.14396e-08 -3.87554e-08 109.89 -1.97911e-08 -5.61554e-08 109.89 -1.81586e-08 -7.44576e-08 109.89 -2.23493e-08 -8.79526e-08 109.89 -2.91406e-08 5.48407e-09 109.89 4.51952e-08 1.23019e-08 109.89 7.29435e-10 1.45164e-08 109.89 5.98701e-08 2.08126e-08 109.89 4.2611e-08 2.25011e-08 109.89 -4.89448e-08 -1.1721e-08 109.89 1.09886e-08 -3.4392e-08 109.89 -4.23181e-08 -5.41969e-08 109.89 1.75911e-09 -6.75864e-08 109.89 -2.09746e-08 -8.17448e-08 109.89 -5.20607e-08 -3.93536e-10 109.89 4.68246e-08 7.17299e-10 109.89 -2.21327e-08 -5.35357e-09 109.89 5.37243e-08 -2.51516e-09 109.89 2.59248e-08 -6.2434e-09 109.89 -6.61754e-08 -8.27682e-09 109.89 3.54516e-08 -1.88565e-08 109.89 -4.45074e-08 -3.46767e-08 109.89 3.14931e-08 -3.96337e-08 109.89 -1.66239e-09 -5.02306e-08 109.89 -1.66368e-08 -1.72257e-09 109.89 1.02512e-08 5.93799e-09 109.89 -2.50358e-09 4.8595e-09 109.89 1.35287e-08 8.89656e-09 109.89 1.02634e-08 9.485e-09 109.89 -8.50697e-09 -1.36457e-08 109.89 1.23761e-08 6.41748e-10 109.89 2.61441e-09 -1.52281e-08 109.89 1.71997e-08 -4.12277e-09 109.89 1.42942e-08 -1.14015e-08 109.89 -8.13961e-09 -9.81444e-11 109.89 1.2978e-09 4.96663e-09 109.89 -2.09907e-09 5.73622e-09 109.89 2.22228e-09 7.82535e-09 109.89 1.94557e-09 9.15141e-09 109.89 6.77182e-09 -3.37557e-09 109.89 -7.85623e-09 -1.29715e-09 109.89 -1.76469e-09 -6.38115e-09 109.89 -1.05972e-08 -4.24808e-09 109.89 -9.26638e-09 -6.94177e-09 109.89 5.64862e-09 1.44683e-09 109.89 -1.10643e-08 1.09383e-09 109.89 -2.98517e-09 2.32735e-09 109.89 -1.46069e-08 1.53398e-09 109.89 -1.21452e-08 2.28665e-09 109.89 -2.52601e-08 -1.53494e-08 109.89 -1.20614e-08 -7.49765e-09 109.89 -3.20668e-08 -4.50236e-08 109.89 -2.08595e-08 -4.44624e-08 109.89 -3.05755e-08 -6.29006e-08 109.89 -6.64467e-08 1.89866e-08 109.89 5.46742e-08 -1.36461e-08 109.89 -5.40016e-08 1.41175e-08 109.89 3.94597e-08 -1.09888e-08 109.89 -6.10709e-09 1.04989e-09 109.89 -6.18981e-08 -1.01533e-08 109.89 -9.35283e-10 -7.90373e-09 109.89 -6.24078e-08 -3.78613e-08 109.89 -1.42624e-08 -4.10062e-08 109.89 -4.17522e-08 -5.61356e-08 109.89 -8.50161e-08 1.32162e-08 109.89 3.06732e-08 -1.27853e-08 109.89 -7.49253e-08 2.60775e-09 109.89 1.77966e-08 -1.79255e-08 109.89 -2.76509e-08 -1.19906e-08 109.89 -8.82887e-08 1.35486e-09 109.89 1.15856e-08 -1.01088e-08 109.89 -8.26646e-08 -1.89225e-08 109.89 -2.44288e-09 -3.0371e-08 109.89 -4.40779e-08 -3.59393e-08 109.89 9.71132e-08 4.0138e-09 109.89 2.16226e-08 -6.01369e-09 109.89 1.06229e-07 -4.54627e-09 109.89 6.09084e-08 -1.15155e-08 109.89 9.83346e-08 -1.15286e-08 109.89 -6.10443e-08 -1.2177e-08 109.89 -8.96512e-08 -5.3725e-08 109.89 -6.32698e-08 -4.44227e-08 109.89 -9.09247e-08 -7.77409e-08 109.89 -7.70446e-08 -7.59307e-08 109.89 8.95379e-08 -8.81634e-09 109.89 7.90803e-09 -4.6865e-09 109.89 1.0203e-07 -1.80317e-08 109.89 5.33425e-08 -1.5865e-08 109.89 9.50524e-08 -2.2542e-08 109.89 -1.94418e-08 -2.04439e-08 109.89 -6.36121e-08 -3.36087e-08 109.89 -1.37236e-08 -4.51724e-08 109.89 -4.74091e-08 -5.99735e-08 109.89 -2.3373e-08 -6.69906e-08 109.89 4.59788e-08 -2.03823e-08 109.89 -2.29866e-08 -1.2532e-08 109.89 5.91532e-08 -3.49807e-08 109.89 1.6648e-08 -3.18169e-08 109.89 5.34836e-08 -4.34522e-08 109.89 1.10317e-09 -3.53584e-09 109.89 1.28322e-08 -2.70287e-10 109.89 4.52539e-09 -4.24542e-09 109.89 1.22711e-08 -1.87876e-09 109.89 9.19034e-09 -3.69448e-09 109.89 -1.74435e-08 -9.826e-09 109.89 -1.27952e-08 -7.80531e-11 109.89 -2.03625e-08 -9.75735e-09 109.89 -1.5978e-08 -4.3668e-09 109.89 -1.98276e-08 -8.22638e-09 109.89 1.36934e-08 1.92334e-09 109.89 2.03466e-08 -3.67025e-09 109.89 1.77093e-08 4.0943e-10 109.89 2.16159e-08 -2.91031e-09 109.89 2.11145e-08 -1.45837e-09 109.89 -2.08381e-09 -1.04708e-09 109.89 -7.39604e-09 -2.85498e-09 109.89 -4.54507e-09 -2.79495e-09 109.89 -7.20588e-09 -4.29151e-09 109.89 -6.49689e-09 -4.42646e-09 109.89 1.33777e-08 4.30781e-09 109.89 9.79003e-09 -4.92204e-09 109.89 1.44099e-08 1.96207e-09 109.89 1.19673e-08 -3.85369e-09 109.89 1.40653e-08 -1.30392e-09 109.89 -3.36693e-09 -2.50032e-09 109.89 6.7077e-09 2.77216e-09 109.89 -6.48209e-09 -3.66882e-09 109.89 1.16499e-09 -4.36443e-11 109.89 -4.96914e-09 -2.92597e-09 109.89 1.1475e-08 -6.17773e-09 109.89 -9.46777e-09 5.18249e-09 109.89 2.1661e-08 -2.89775e-09 109.89 5.45855e-09 5.97701e-09 109.89 2.02576e-08 2.67922e-09 109.89 -6.6183e-09 -6.47697e-09 109.89 1.3271e-08 8.42506e-09 109.89 -5.87731e-09 -5.51804e-09 109.89 1.00493e-08 5.59685e-09 109.89 1.46838e-09 -4.40004e-10 109.89 2.82101e-09 -8.29193e-09 109.89 3.85389e-09 9.07646e-09 109.89 1.36634e-08 -3.82754e-09 109.89 1.52818e-08 9.77526e-09 109.89 2.0489e-08 4.42e-09 109.89 -5.14142e-09 -9.04366e-09 109.89 1.40125e-08 1.13635e-08 109.89 1.87486e-09 -5.4306e-09 109.89 1.77833e-08 1.02677e-08 109.89 1.27966e-08 3.14399e-09 109.89 -1.15085e-08 -3.76479e-09 109.89 4.54153e-09 -4.97315e-09 109.89 -6.81812e-09 -7.28907e-09 109.89 7.6204e-09 -8.07622e-09 109.89 2.50682e-09 -9.48837e-09 109.89 1.09522e-08 7.43509e-09 109.89 -6.97629e-09 1.5967e-09 109.89 3.65597e-09 1.48782e-08 109.89 -1.416e-08 1.04727e-08 109.89 -9.16082e-09 1.71425e-08 109.89 -3.45393e-08 -4.07676e-09 109.89 1.43883e-08 -9.33578e-09 109.89 -2.65284e-08 -6.16954e-09 109.89 1.06386e-08 -9.85584e-09 109.89 -6.79654e-09 -8.73233e-09 109.89 -2.36169e-08 3.34913e-09 109.89 9.1593e-09 -1.6661e-09 109.89 -2.27151e-08 1.13591e-08 109.89 -2.84141e-09 7.51202e-09 109.89 -1.5794e-08 1.41176e-08 109.89 -4.4861e-08 -1.57834e-09 109.89 1.89126e-08 -7.61994e-09 109.89 -3.72151e-08 1.90762e-09 109.89 7.86336e-09 -2.51733e-09 109.89 -1.56131e-08 2.02223e-09 109.89 -1.716e-08 -2.23549e-09 109.89 4.75608e-09 1.66148e-09 109.89 -1.94482e-08 -4.37421e-09 109.89 -2.20645e-09 -1.49588e-09 109.89 -1.33462e-08 -4.38575e-09 109.89 2.88811e-08 8.33194e-10 109.89 9.29069e-10 1.80389e-09 109.89 3.6468e-08 6.17898e-09 109.89 1.32244e-08 7.98676e-09 109.89 3.0118e-08 1.02805e-08 109.89 -3.03551e-08 -5.68941e-09 109.89 1.9336e-08 5.82942e-09 109.89 -2.49513e-08 -4.75155e-09 109.89 1.21818e-08 3.90183e-09 109.89 -6.81861e-09 -6.83016e-10 109.89 -1.36456e-09 -1.44635e-09 109.89 1.82967e-08 5.56952e-09 109.89 1.24103e-08 5.92731e-09 109.89 2.47741e-08 1.2273e-08 109.89 2.41039e-08 1.29907e-08 109.89 -2.778e-08 -5.17486e-09 109.89 2.7613e-08 7.90611e-09 109.89 -1.43387e-08 4.0504e-10 109.89 2.56729e-08 1.07789e-08 109.89 8.87138e-09 7.93539e-09 109.89 -1.3663e-09 4.09569e-09 109.89 1.21993e-09 2.94778e-08 109.89 -2.9247e-09 -1.84508e-08 109.89 -6.10282e-11 -1.05633e-09 109.89 -2.28952e-09 -2.42973e-08 109.89 -1.28287e-08 -1.21596e-09 109.89 -3.97574e-08 -1.17713e-08 109.89 1.67361e-08 6.17781e-09 109.89 8.04302e-09 1.01708e-10 109.89 3.35343e-08 8.41418e-09 109.89 -1.0058e-08 2.7809e-09 109.89 -1.09848e-08 2.56245e-08 109.89 -1.56196e-09 -1.6933e-08 109.89 4.5221e-09 -9.66547e-10 109.89 8.02852e-09 -2.16288e-08 109.89 -1.65356e-08 -7.19426e-10 109.89 -3.78178e-08 -2.75742e-09 109.89 1.22709e-08 -3.70414e-11 109.89 9.45096e-09 -1.21675e-10 109.89 3.16551e-08 8.35073e-10 109.89 -1.66686e-08 8.10049e-10 109.89 -2.71876e-08 1.28518e-08 109.89 4.51444e-09 -9.77254e-09 109.89 8.61357e-09 -5.81143e-10 109.89 2.21374e-08 -1.17444e-08 109.89 -9.95283e-10 2.87056e-10 109.89 -5.23407e-10 3.53144e-10 109.89 9.78583e-10 1.25811e-09 109.89 1.26473e-09 9.88493e-10 109.89 2.14773e-09 1.5609e-09 109.89 -1.59307e-09 -2.18122e-09 109.89 -4.96368e-09 3.79152e-10 109.89 3.60857e-09 -2.19193e-09 109.89 1.98664e-09 5.30008e-10 109.89 6.1146e-09 -7.89681e-10 109.89 -1.18593e-10 1.01407e-09 109.89 1.66566e-09 1.97746e-10 109.89 -6.49145e-10 1.68689e-09 109.89 1.69015e-10 8.54353e-10 109.89 -7.9395e-10 1.63249e-09 109.89 3.64571e-10 2.64282e-10 109.89 9.25665e-10 -1.86394e-10 109.89 -1.18147e-09 -4.18678e-10 109.89 -8.59803e-10 -1.48142e-10 109.89 -1.92959e-09 -4.57954e-10 109.89 8.8145e-10 1.49078e-09 109.89 3.46844e-09 -1.84633e-10 109.89 -2.63074e-09 1.23451e-09 109.89 -1.39505e-09 1.43786e-10 109.89 -4.29888e-09 7.0859e-10 109.89 -5.31622e-09 2.11907e-09 109.89 1.273e-08 -9.42273e-09 109.89 -6.95077e-09 -1.28379e-08 109.89 5.1524e-09 -2.47403e-08 109.89 -3.60714e-09 -2.70421e-08 109.89 -2.74286e-08 1.06992e-09 109.89 2.71004e-08 -9.58309e-09 109.89 -4.00176e-08 -8.58124e-10 109.89 5.09038e-09 -9.02068e-09 109.89 -2.67747e-08 -5.18012e-09 109.89 -1.74103e-08 3.31797e-09 109.89 3.00112e-08 -1.22571e-08 109.89 -1.94271e-08 -1.11637e-08 109.89 1.64204e-08 -2.57007e-08 109.89 -5.84689e-09 -2.60028e-08 109.89 -3.04523e-08 3.08717e-09 109.89 3.71593e-08 -1.33364e-08 109.89 -4.03402e-08 -2.83944e-09 109.89 1.40522e-08 -1.59216e-08 109.89 -2.20527e-08 -1.15704e-08 109.89 -2.80953e-08 4.09079e-09 109.89 4.11378e-08 -1.46056e-08 109.89 -3.34234e-08 -7.06658e-09 109.89 2.07817e-08 -2.29461e-08 109.89 -1.33029e-08 -2.02243e-08 109.89 1.55545e-08 -1.336e-08 109.89 4.23325e-09 1.63809e-09 109.89 2.48053e-08 -2.09702e-08 109.89 1.12944e-08 -1.13688e-08 109.89 2.2649e-08 -2.18047e-08 109.89 3.50992e-09 -1.19459e-08 109.89 -5.29837e-08 4.42368e-09 109.89 7.06416e-09 -2.62687e-08 109.89 -2.70581e-08 -1.79589e-08 109.89 -1.96781e-09 -3.20501e-08 109.89 1.33315e-08 -1.40999e-08 109.89 -3.04321e-09 -4.77983e-09 109.89 2.26933e-08 -2.42975e-08 109.89 7.15243e-09 -1.82933e-08 109.89 2.04034e-08 -2.77602e-08 109.89 5.79791e-09 -1.33045e-08 109.89 -4.52156e-08 -3.71104e-09 109.89 1.10077e-08 -2.75722e-08 109.89 -2.12735e-08 -2.26729e-08 109.89 2.86266e-09 -3.41302e-08 109.89 9.58517e-09 -1.4278e-08 109.89 -2.372e-08 -8.33263e-09 109.89 1.73751e-08 -2.72103e-08 109.89 -6.4412e-09 -2.37327e-08 109.89 1.24155e-08 -3.31717e-08 109.89 -4.23674e-09 -1.77144e-09 109.89 -6.36742e-09 3.21858e-09 109.89 -7.13329e-09 -9.83434e-10 109.89 -7.68978e-09 2.49678e-09 109.89 -8.5589e-09 7.75827e-10 109.89 -1.82905e-09 2.0857e-09 109.89 3.27865e-09 -5.14983e-09 109.89 -2.56593e-09 1.36617e-09 109.89 1.43126e-09 -3.4905e-09 109.89 -1.26013e-09 -8.09365e-10 109.89 -2.09981e-09 -9.52937e-10 109.89 -5.44176e-09 4.61082e-09 109.89 -3.89058e-09 -7.29727e-11 109.89 -6.04197e-09 3.59943e-09 109.89 -5.62125e-09 1.72955e-09 109.89 -1.89488e-10 9.31323e-10 109.89 4.58814e-09 2.63078e-10 109.89 3.8591e-10 4.66343e-10 109.89 3.22254e-09 -1.98071e-10 109.89 1.59011e-09 -1.1984e-10 109.89 -1.15961e-10 -1.01917e-10 109.89 1.94007e-10 4.28739e-09 109.89 -6.29825e-11 1.99638e-10 109.89 -4.63729e-10 2.8957e-09 109.89 -4.33914e-10 1.25174e-09 109.89 1.4447e-09 -5.47844e-09 109.89 1.70364e-08 -7.31566e-09 109.89 -8.48669e-09 4.55259e-09 109.89 -1.634e-09 2.58728e-09 109.89 -1.28674e-08 9.01034e-09 109.89 2.77985e-09 -2.96596e-11 109.89 2.09479e-09 -3.31854e-10 109.89 -8.51266e-10 -1.2276e-09 109.89 -1.79592e-09 -8.5654e-10 109.89 -3.37503e-09 -1.51225e-09 109.89 1.62323e-09 -5.33328e-09 109.89 1.95125e-08 -4.47485e-09 109.89 -1.03731e-08 2.20757e-09 109.89 -1.88355e-09 2.431e-09 109.89 -1.52415e-08 6.26071e-09 109.89 2.90784e-09 -1.37392e-09 109.89 7.811e-09 -6.33889e-10 109.89 -3.95782e-09 -9.7897e-10 109.89 -2.07651e-09 1.87835e-11 109.89 -7.58748e-09 -1.95028e-10 109.89 2.33889e-09 -3.69089e-09 109.89 1.59458e-08 -1.85761e-09 109.89 -8.56228e-09 4.0885e-11 109.89 -2.123e-09 1.42637e-09 109.89 -1.32472e-08 2.64659e-09 109.89 -2.0594e-08 -1.87172e-08 109.89 -3.08423e-09 2.71359e-08 109.89 -1.45335e-08 1.90016e-08 109.89 -7.93832e-09 4.52221e-08 109.89 -1.08479e-08 4.73507e-08 109.89 2.62801e-08 1.32118e-08 109.89 -1.39072e-08 -3.60305e-09 109.89 1.03047e-08 4.02606e-09 109.89 -1.60782e-08 -5.82357e-09 109.89 -7.8342e-09 -4.03013e-09 109.89 -1.87477e-08 -1.76013e-08 109.89 -8.46051e-09 2.26908e-08 109.89 -1.63272e-08 1.3541e-08 109.89 -1.56316e-08 3.63012e-08 109.89 -1.727e-08 3.70952e-08 109.89 1.83241e-08 6.21458e-09 109.89 -1.62206e-08 2.14295e-09 109.89 5.057e-09 5.72128e-09 109.89 -2.00722e-08 2.90835e-09 109.89 -1.21948e-08 4.34919e-09 109.89 -2.15774e-09 -7.41916e-09 109.89 -1.43988e-08 1.28112e-08 109.89 -7.74387e-09 8.56775e-09 109.89 -2.10411e-08 1.96092e-08 109.89 -1.77557e-08 2.02473e-08 109.89 2.15578e-08 4.39771e-08 109.89 -1.56488e-08 5.52965e-08 109.89 2.40255e-08 1.06345e-07 109.89 -1.83987e-10 1.11449e-07 109.89 1.63657e-08 1.41069e-07 109.89 9.33142e-09 4.66376e-09 109.89 -8.40373e-10 -3.88929e-08 109.89 1.06959e-08 -2.60885e-08 109.89 -4.86087e-09 -5.47596e-08 109.89 2.0528e-09 -5.33276e-08 109.89 6.8932e-08 5.56938e-08 109.89 -3.02753e-08 3.84347e-08 109.89 6.77439e-08 1.0422e-07 109.89 -3.22251e-09 8.92795e-08 109.89 3.8735e-08 1.2352e-07 109.89 5.37962e-08 2.36942e-08 109.89 -1.95769e-08 -3.04154e-08 109.89 5.14796e-08 6.48528e-09 109.89 -8.39253e-09 -3.04692e-08 109.89 2.36586e-08 -1.7013e-08 109.89 8.6774e-08 4.79401e-08 109.89 -3.35256e-08 2.07019e-09 109.89 8.36586e-08 6.38016e-08 109.89 -6.59771e-09 3.04997e-08 109.89 4.45244e-08 5.88335e-08 109.89 2.03719e-09 -1.95784e-09 109.89 -2.6075e-08 8.70172e-09 109.89 1.41845e-08 -4.0474e-09 109.89 2.12242e-10 2.55191e-09 109.89 1.77489e-08 -3.015e-09 109.89 3.35271e-09 6.97084e-09 109.89 2.98668e-08 -1.22909e-08 109.89 -1.5266e-08 1.18521e-08 109.89 -2.88251e-09 -1.78942e-09 109.89 -2.31623e-08 9.26065e-09 109.89 -3.15972e-09 2.08756e-09 109.89 -2.54284e-08 5.6761e-09 109.89 8.5136e-09 6.26631e-10 109.89 1.60284e-09 8.32137e-10 109.89 1.56661e-08 -9.9571e-10 109.89 -3.40845e-09 7.27074e-09 109.89 1.60635e-08 -1.10362e-08 109.89 -1.34569e-08 1.20976e-08 109.89 3.1392e-10 -1.99385e-09 109.89 -1.36601e-08 8.87138e-09 109.89 -6.56689e-09 5.87461e-09 109.89 -8.27666e-09 -3.16356e-09 109.89 -3.53733e-09 7.7091e-09 109.89 2.21837e-09 -1.11073e-09 109.89 3.03073e-09 4.38003e-09 109.89 2.52396e-08 -7.02132e-08 109.89 9.74495e-08 -2.11111e-08 109.89 3.15449e-08 -1.22362e-07 109.89 8.94446e-08 -9.35161e-08 109.89 5.94969e-08 -1.42713e-07 109.89 -2.2436e-08 -3.22118e-08 109.89 3.0033e-08 3.14962e-09 109.89 -3.03945e-08 -5.01053e-08 109.89 1.31458e-08 -2.63624e-08 109.89 -1.54154e-08 -5.13958e-08 109.89 3.83398e-08 -7.4382e-08 109.89 1.30345e-07 -1.59183e-08 109.89 4.64928e-08 -1.20333e-07 109.89 1.17978e-07 -8.43071e-08 109.89 8.07838e-08 -1.3426e-07 109.89 3.02792e-09 -4.41968e-08 109.89 7.8966e-08 -1.71231e-09 109.89 1.18431e-09 -6.88205e-08 109.89 6.11035e-08 -4.07275e-08 109.89 2.57621e-08 -7.24788e-08 109.89 3.10297e-08 -6.3468e-08 109.89 1.26362e-07 -8.68963e-09 109.89 3.62341e-08 -9.87901e-08 109.89 1.09735e-07 -6.36944e-08 109.89 6.97874e-08 -1.06432e-07 109.89 -2.1214e-09 -5.6214e-09 109.89 1.92792e-08 2.6734e-08 109.89 -5.79402e-09 -1.44427e-08 109.89 7.46787e-09 2.93123e-09 109.89 -3.40049e-09 -1.4599e-08 109.89 -7.58432e-09 -8.15833e-09 109.89 2.39013e-08 8.56972e-09 109.89 -1.45628e-08 -1.46117e-08 109.89 5.83008e-09 -4.70259e-09 109.89 -1.11933e-08 -1.50294e-08 109.89 -2.98303e-09 -6.16519e-09 109.89 2.46562e-08 2.25566e-08 109.89 -8.2517e-09 -1.45257e-08 109.89 8.34831e-09 1.09571e-09 109.89 -5.83822e-09 -1.48075e-08 109.89 -6.37169e-09 -7.95266e-09 109.89 2.60267e-08 1.17196e-08 109.89 -1.37377e-08 -1.51701e-08 109.89 6.42312e-09 -3.84519e-09 109.89 -1.10095e-08 -1.57071e-08 109.89 -4.58562e-09 -7.1502e-09 109.89 2.73854e-08 1.68376e-08 109.89 -1.14481e-08 -1.5022e-08 109.89 7.78093e-09 -1.65325e-09 109.89 -9.04843e-09 -1.55023e-08 109.89 -1.69159e-08 7.16327e-09 109.89 -6.13983e-09 1.22501e-09 109.89 -2.20377e-08 8.38454e-09 109.89 -1.53039e-08 5.28477e-09 109.89 -2.25624e-08 8.28484e-09 109.89 -2.43603e-08 1.83604e-08 109.89 6.53254e-09 -7.41139e-09 109.89 -2.26361e-08 1.24937e-08 109.89 -1.82271e-09 -6.00476e-09 109.89 -1.3948e-08 1.95753e-09 109.89 -5.01954e-10 -3.00039e-09 109.89 -6.92289e-09 1.42997e-09 109.89 -5.43245e-09 -5.43987e-10 109.89 -1.01311e-08 3.10269e-09 109.89 -1.00478e-08 2.43505e-09 109.89 6.6283e-09 3.00536e-10 109.89 3.80375e-09 -4.19348e-09 109.89 1.07428e-08 -2.73102e-09 109.89 9.21094e-09 -6.4909e-09 109.89 1.25658e-08 -6.08427e-09 109.89 1.6166e-08 -9.07479e-09 109.89 -2.49686e-09 -4.55472e-10 109.89 1.65335e-08 -8.27683e-09 109.89 4.07115e-09 -2.4517e-09 109.89 1.21301e-08 -5.66857e-09 109.89 -8.69873e-08 3.68353e-08 109.89 -2.42872e-08 -2.83665e-08 109.89 -8.85616e-08 -4.75567e-09 109.89 -4.12056e-08 -3.81003e-08 109.89 -6.93988e-08 -3.5118e-08 109.89 3.08889e-08 -1.3786e-08 109.89 2.47793e-08 -2.72635e-08 109.89 4.51399e-08 -3.81501e-08 109.89 4.57171e-08 -4.45796e-08 109.89 5.51947e-08 -5.27392e-08 109.89 -6.02955e-08 2.30511e-08 109.89 -3.00356e-08 -3.48205e-08 109.89 -6.64638e-08 -1.83915e-08 109.89 -3.90996e-08 -4.78598e-08 109.89 -5.657e-08 -4.77729e-08 109.89 2.21985e-08 -1.42532e-08 109.89 1.0234e-08 -3.32783e-08 109.89 2.92604e-08 -4.37648e-08 109.89 2.74877e-08 -5.23754e-08 109.89 3.51681e-08 -6.12897e-08 109.89 -1.33325e-08 4.09553e-10 109.89 -1.54082e-08 -3.75249e-08 109.89 -1.61646e-08 -3.63863e-08 109.89 -9.96953e-09 -5.49571e-08 109.89 -1.21424e-08 -6.03517e-08 109.89 1.28923e-08 6.0268e-10 109.89 7.62412e-10 5.06262e-10 109.89 2.06105e-08 3.19279e-09 109.89 1.42443e-08 2.15429e-09 109.89 2.35752e-08 4.02647e-09 109.89 -3.29151e-08 -1.68215e-08 109.89 2.58649e-08 -2.35562e-08 109.89 -3.81242e-08 -2.58621e-08 109.89 -1.65615e-09 -3.09701e-08 109.89 -2.975e-08 -3.32377e-08 109.89 5.42547e-09 -3.49916e-09 109.89 8.97113e-09 -4.29941e-09 109.89 1.08492e-08 -2.43649e-09 109.89 1.39673e-08 -3.66002e-09 109.89 1.49383e-08 -2.68107e-09 109.89 -3.17049e-08 -1.85819e-08 109.89 2.36255e-08 -1.84364e-08 109.89 -3.59379e-08 -2.51254e-08 109.89 -1.7524e-09 -2.58817e-08 109.89 -2.80963e-08 -2.97715e-08 109.89 -1.44345e-08 -1.24486e-08 109.89 1.78484e-08 -1.13299e-08 109.89 -1.41164e-08 -1.48985e-08 109.89 6.20224e-09 -1.48977e-08 109.89 -8.03437e-09 -1.69239e-08 109.89 -7.9325e-10 3.94649e-09 109.89 -8.82727e-11 7.16199e-10 109.89 -6.14648e-10 4.7465e-09 109.89 1.1468e-09 2.95472e-09 109.89 6.57053e-10 4.68559e-09 109.89 7.12272e-09 -5.65919e-10 109.89 -1.6567e-09 1.45722e-08 109.89 9.89761e-09 4.44203e-09 109.89 3.31177e-09 1.41914e-08 109.89 8.71588e-09 1.05637e-08 109.89 -1.04927e-09 3.65136e-09 109.89 1.96456e-09 2.20056e-09 109.89 -3.22132e-10 5.31129e-09 109.89 3.14393e-09 4.6723e-09 109.89 1.93347e-09 6.12386e-09 109.89 3.56999e-09 1.21108e-09 109.89 1.60893e-09 1.09106e-08 109.89 6.05844e-09 5.8553e-09 109.89 5.09629e-09 1.22195e-08 109.89 7.20003e-09 1.06529e-08 109.89 2.32063e-10 2.83064e-09 109.89 3.18914e-09 5.94678e-09 109.89 1.90289e-09 6.10231e-09 109.89 5.10879e-09 8.34819e-09 109.89 4.48125e-09 8.77257e-09 109.89 -1.52263e-08 7.59493e-09 109.89 -3.93986e-09 -1.12863e-09 109.89 -2.46192e-08 1.4277e-08 109.89 -1.75315e-08 1.01261e-08 109.89 -2.73131e-08 1.71085e-08 109.89 -1.46433e-08 1.33649e-08 109.89 6.89389e-09 -2.17065e-08 109.89 -1.66139e-08 6.47853e-09 109.89 6.43247e-10 -1.80814e-08 109.89 -1.01339e-08 -6.78074e-09 109.89 -3.01379e-09 3.27902e-09 109.89 -9.74181e-09 5.87674e-10 109.89 -9.84353e-09 8.50954e-09 109.89 -1.60053e-08 8.11403e-09 109.89 -1.65327e-08 1.18094e-08 109.89 8.57218e-09 7.34062e-10 109.89 1.97912e-09 -6.72633e-09 109.89 1.4656e-08 -4.72348e-09 109.89 1.05314e-08 -1.05588e-08 109.89 1.65849e-08 -1.0212e-08 109.89 1.24049e-08 -2.58445e-09 109.89 -6.8334e-09 1.45796e-09 109.89 1.48912e-08 -2.69019e-09 109.89 3.19602e-10 2.83528e-10 109.89 1.01659e-08 -1.54393e-09 109.89 2.62454e-09 4.64723e-08 109.89 1.28126e-08 -4.78853e-08 109.89 1.03602e-08 5.27725e-08 109.89 1.79975e-08 -2.28573e-09 109.89 1.77049e-08 3.9315e-08 109.89 1.92524e-08 -1.06132e-08 109.89 -1.75339e-08 -2.72065e-09 109.89 3.16299e-08 -2.59608e-08 109.89 3.77936e-09 -2.39807e-08 109.89 2.66593e-08 -3.50085e-08 109.89 1.68774e-08 4.07082e-08 109.89 -1.73e-08 -5.64327e-08 109.89 2.21394e-08 4.01373e-08 109.89 -3.48224e-09 -1.92221e-08 109.89 1.4302e-08 2.02676e-08 109.89 2.67164e-08 -4.17112e-10 109.89 -3.33099e-08 -2.03396e-08 109.89 3.57465e-08 -1.53289e-08 109.89 -9.48714e-09 -3.0671e-08 109.89 2.17427e-08 -3.0011e-08 109.89 2.81152e-08 2.14328e-08 109.89 -3.8136e-08 -4.5601e-08 109.89 3.38525e-08 1.20151e-08 109.89 -1.58026e-08 -3.13025e-08 109.89 1.62974e-08 -8.51358e-09 109.89 3.84229e-08 1.08433e-08 109.89 -2.93947e-08 -1.22376e-08 109.89 4.4593e-08 2.46557e-08 109.89 7.09004e-09 9.87803e-09 109.89 3.70359e-08 2.69372e-08 109.89 -2.03976e-08 -2.78601e-08 109.89 -2.22829e-08 3.31717e-08 109.89 -4.46963e-08 -2.34295e-08 109.89 -5.37974e-08 1.79976e-08 109.89 -6.53158e-08 -6.3658e-09 109.89 3.32411e-08 9.97002e-10 109.89 -4.21496e-08 -1.17432e-09 109.89 2.81207e-08 1.5342e-08 109.89 -1.84115e-08 1.66435e-08 109.89 8.68754e-09 2.41291e-08 109.89 -7.86302e-09 -2.53724e-08 109.89 -3.10506e-08 2.97629e-08 109.89 -3.34981e-08 -1.78337e-08 109.89 -5.59652e-08 2.14672e-08 109.89 -6.00398e-08 5.54174e-10 109.89 1.49736e-08 -1.41219e-08 109.89 -4.27292e-08 1.63356e-08 109.89 -3.75762e-09 -2.1279e-09 109.89 -4.47167e-08 2.19466e-08 109.89 -3.16653e-08 1.36345e-08 109.89 -1.84394e-09 1.72397e-09 109.89 -5.17316e-09 1.12602e-09 109.89 -2.73917e-09 1.04733e-08 109.89 -5.35877e-09 1.19117e-08 109.89 -4.23965e-09 1.6508e-08 109.89 1.35039e-09 4.34725e-09 109.89 -3.18046e-09 1.55695e-09 109.89 1.37047e-09 7.54439e-09 109.89 -4.86798e-09 6.11367e-09 109.89 -2.20283e-09 8.90258e-09 109.89 -4.83169e-12 3.5358e-09 109.89 -5.32238e-09 -1.10044e-10 109.89 1.90667e-10 1.15797e-08 109.89 -5.23822e-09 1.07589e-08 109.89 -2.38514e-09 1.62925e-08 109.89 1.59415e-09 4.67951e-09 109.89 -4.07213e-09 7.26276e-10 109.89 1.73517e-09 9.16581e-09 109.89 -5.71007e-09 7.22577e-09 109.89 -2.39146e-09 1.11401e-08 109.89 1.37007e-09 4.70216e-09 109.89 -4.98438e-09 -2.64553e-10 109.89 1.88849e-09 1.11365e-08 109.89 -5.6459e-09 8.99206e-09 109.89 -1.89478e-09 1.42911e-08 109.89 3.40298e-08 9.44329e-09 109.89 -1.79593e-08 2.06725e-09 109.89 2.16585e-08 1.46843e-08 109.89 -2.08605e-08 9.26789e-09 109.89 -3.70548e-09 1.54014e-08 109.89 1.11656e-08 -6.32974e-09 109.89 -2.37977e-08 -3.81572e-08 109.89 -1.11e-09 -5.24346e-08 109.89 -2.69588e-08 -7.26371e-08 109.89 -1.8182e-08 -8.46129e-08 109.89 6.59423e-08 1.07458e-08 109.89 -3.53919e-08 -2.22848e-09 109.89 4.56096e-08 7.35663e-09 109.89 -3.21733e-08 -1.68267e-09 109.89 2.14389e-09 2.11924e-09 109.89 5.05035e-08 -1.6871e-10 109.89 -4.06601e-08 -3.19605e-08 109.89 2.92668e-08 -3.94957e-08 109.89 -3.81474e-08 -6.01652e-08 109.89 -9.45539e-09 -6.82612e-08 109.89 7.74973e-08 7.29148e-09 109.89 -4.73581e-08 -1.65402e-08 109.89 5.20827e-08 -1.45081e-08 109.89 -4.13305e-08 -3.04327e-08 109.89 1.98678e-10 -3.21472e-08 109.89 -7.45031e-09 1.85608e-08 109.89 -9.84525e-09 2.06042e-08 109.89 -1.6897e-09 5.90758e-08 109.89 -3.75998e-09 6.34231e-08 109.89 2.09737e-10 8.40233e-08 109.89 5.21732e-08 -1.22266e-08 109.89 -4.13269e-08 3.38511e-10 109.89 2.97413e-08 -9.75863e-09 109.89 -4.50006e-08 -6.16903e-09 109.89 -1.41809e-08 -8.8893e-09 109.89 2.62818e-09 1.57825e-08 109.89 -4.81362e-08 1.58234e-08 109.89 1.21338e-10 5.31197e-08 109.89 -3.95843e-08 5.58162e-08 109.89 -1.84898e-08 7.58445e-08 109.89 2.96567e-08 -6.30854e-09 109.89 -6.24762e-08 3.53367e-09 109.89 1.36354e-08 5.39491e-09 109.89 -6.21484e-08 1.01807e-08 109.89 -2.82386e-08 1.3345e-08 109.89 1.29887e-08 5.65448e-09 109.89 -7.14012e-08 9.29911e-09 109.89 3.04271e-09 3.18985e-08 109.89 -6.52612e-08 3.55725e-08 109.89 -3.24375e-08 4.87009e-08 109.89 -1.5089e-08 -3.50123e-09 109.89 3.64225e-08 5.32894e-09 109.89 -1.20006e-08 -7.26766e-09 109.89 3.08725e-08 -1.5898e-09 109.89 8.82631e-09 -7.39289e-09 109.89 -1.43016e-08 1.82074e-08 109.89 1.64558e-08 2.29952e-08 109.89 -3.46017e-09 5.83207e-08 109.89 1.95699e-08 6.44778e-08 109.89 1.15649e-08 8.3607e-08 109.89 -2.97284e-08 -1.78378e-09 109.89 6.97965e-08 1.21493e-08 109.89 -1.73394e-08 2.99286e-09 109.89 6.03979e-08 1.26118e-08 109.89 2.23775e-08 9.12679e-09 109.89 -2.60868e-08 1.46688e-08 109.89 5.68962e-08 2.45256e-08 109.89 -8.50124e-09 4.95828e-08 109.89 5.42876e-08 5.87269e-08 109.89 2.67257e-08 7.2859e-08 109.89 -3.51115e-08 5.92156e-09 109.89 8.33469e-08 2.05498e-08 109.89 -1.57338e-08 2.66837e-08 109.89 7.47987e-08 3.78848e-08 109.89 3.23901e-08 4.25104e-08 109.89 4.68306e-08 1.30122e-09 109.89 -1.08985e-08 -5.81e-10 109.89 4.91368e-08 4.26949e-09 109.89 3.88443e-09 3.73136e-09 109.89 3.09241e-08 6.04107e-09 109.89 -1.07621e-09 -1.65838e-08 109.89 -1.92094e-08 -7.56615e-09 109.89 -1.18193e-08 -4.5816e-08 109.89 -2.43193e-08 -4.42194e-08 109.89 -2.24709e-08 -6.29269e-08 109.89 6.94563e-08 -7.76768e-10 109.89 -2.78462e-08 -4.18167e-09 109.89 6.27561e-08 -4.45769e-09 109.89 -1.15515e-08 -7.05867e-09 109.89 2.78071e-08 -7.48623e-09 109.89 3.85573e-08 -1.52931e-08 109.89 -3.04721e-08 -7.5781e-09 109.89 2.32314e-08 -4.07676e-08 109.89 -2.80219e-08 -3.91973e-08 109.89 -6.30434e-09 -5.54657e-08 109.89 7.09868e-08 -8.18144e-09 109.89 -3.68535e-08 -6.90269e-09 109.89 5.6325e-08 -2.3589e-08 109.89 -2.49932e-08 -2.47599e-08 109.89 1.43685e-08 -3.31698e-08 109.89 1.6357e-08 3.03213e-09 109.89 -1.88944e-08 3.52811e-09 109.89 1.87226e-08 2.41734e-08 109.89 -5.47772e-09 2.92936e-08 109.89 1.11909e-08 3.9607e-08 109.89 3.54136e-08 -8.69342e-09 109.89 -6.22025e-08 1.93514e-08 109.89 3.29224e-08 -4.56399e-09 109.89 -4.27699e-08 1.57363e-08 109.89 -8.32209e-10 5.42981e-09 109.89 3.44492e-08 -7.67232e-10 109.89 -5.45732e-08 6.95607e-09 109.89 3.07392e-08 1.9474e-08 109.89 -3.3165e-08 2.9395e-08 109.89 3.57479e-09 3.61049e-08 109.89 4.51234e-08 -9.62612e-09 109.89 -7.83214e-08 1.76975e-08 109.89 3.99364e-08 -7.29933e-10 109.89 -5.26183e-08 2.00887e-08 109.89 -1.28459e-09 1.25351e-08 109.89 4.75092e-08 -6.51442e-09 109.89 -8.03212e-08 1.27749e-08 109.89 4.07371e-08 9.08458e-09 109.89 -5.28564e-08 2.58881e-08 109.89 -7.94334e-10 2.52306e-08 109.89 -2.48903e-08 1.93285e-09 109.89 3.90465e-08 -4.95448e-10 109.89 -2.69962e-08 -4.77518e-11 109.89 1.97651e-08 -2.57749e-09 109.89 -9.1589e-09 -2.46179e-09 109.89 4.66257e-09 4.46731e-09 109.89 4.68222e-09 2.18215e-09 109.89 1.14033e-08 2.50953e-08 109.89 1.29918e-08 2.81465e-08 109.89 1.67281e-08 3.94238e-08 109.89 -3.36412e-08 1.00218e-09 109.89 6.4136e-08 1.43283e-09 109.89 -2.73384e-08 3.84502e-09 109.89 4.43982e-08 4.46472e-09 109.89 5.38442e-09 5.75584e-09 109.89 -1.493e-08 5.13155e-09 109.89 4.2175e-08 1.15803e-09 109.89 -2.56651e-09 2.29836e-08 109.89 4.0515e-08 2.41721e-08 109.89 2.253e-08 3.48192e-08 109.89 -3.21023e-08 3.00534e-09 109.89 7.01808e-08 1.62275e-09 109.89 -1.89637e-08 1.39352e-08 109.89 5.65784e-08 1.52404e-08 109.89 1.93813e-08 2.13395e-08 109.89 -2.78774e-08 -1.30692e-08 109.89 2.65361e-08 -2.61792e-08 109.89 -3.25218e-08 -2.31154e-08 109.89 1.4989e-09 -3.21883e-08 109.89 -2.42866e-08 -3.22472e-08 109.89 9.31362e-08 1.12023e-08 109.89 2.66315e-08 -9.20016e-09 109.89 1.00619e-07 2.28544e-09 109.89 6.08727e-08 -1.10901e-08 109.89 9.35673e-08 -6.94278e-09 109.89 -9.18456e-09 -3.52832e-09 109.89 2.89245e-08 -2.8396e-08 109.89 -1.21613e-08 -1.48038e-08 109.89 1.22687e-08 -3.11496e-08 109.89 -5.48014e-09 -2.6797e-08 109.89 7.36016e-08 1.69597e-08 109.89 3.25136e-08 -1.67635e-08 109.89 7.80227e-08 6.86863e-09 109.89 5.42609e-08 -1.47308e-08 109.89 7.437e-08 -5.6983e-09 109.89 3.13633e-08 1.0583e-08 109.89 3.28384e-08 -2.5281e-08 109.89 3.16415e-08 -8.50709e-10 109.89 3.39724e-08 -2.39145e-08 109.89 3.3685e-08 -1.48545e-08 109.89 2.59932e-09 9.58113e-09 109.89 8.8942e-08 9.52383e-09 109.89 8.17094e-09 2.04818e-08 109.89 6.74015e-08 1.86951e-08 109.89 3.29785e-08 2.51146e-08 109.89 -6.81428e-08 1.94658e-08 109.89 -6.6885e-08 6.86888e-09 109.89 -8.81863e-08 4.17266e-08 109.89 -8.27927e-08 3.58682e-08 109.89 -9.53207e-08 5.26655e-08 109.89 -6.92619e-09 3.76613e-09 109.89 7.88671e-08 -2.4205e-09 109.89 -4.90185e-09 1.50147e-08 109.89 5.35935e-08 8.90526e-09 109.89 1.75521e-08 1.82113e-08 109.89 -5.86278e-08 8.9935e-09 109.89 -2.88387e-08 -5.8453e-09 109.89 -7.42667e-08 2.68445e-08 109.89 -5.09717e-08 1.75901e-08 109.89 -7.30954e-08 3.34842e-08 109.89 -3.24344e-08 1.79205e-09 109.89 3.39973e-08 -1.09483e-08 109.89 -3.88616e-08 1.51818e-08 109.89 7.29075e-09 5.37445e-09 109.89 -2.51771e-08 1.84846e-08 109.89 -6.56468e-09 1.64763e-08 109.89 -2.30007e-08 -7.31542e-09 109.89 -9.54895e-09 1.56388e-08 109.89 -1.60478e-08 2.18303e-09 109.89 -1.16434e-08 1.13204e-08 109.89 3.7179e-09 1.34965e-08 109.89 8.64213e-08 1.65671e-08 109.89 1.01062e-08 2.44098e-08 109.89 6.73042e-08 2.50151e-08 109.89 3.48025e-08 3.00194e-08 109.89 -8.01099e-09 2.03018e-08 109.89 -5.5939e-09 2.74984e-09 109.89 -8.842e-09 2.22045e-08 109.89 -2.52516e-09 1.25678e-08 109.89 -5.12476e-09 2.05951e-08 109.89 2.01671e-09 1.9209e-08 109.89 6.99246e-08 2.25344e-08 109.89 8.18977e-09 2.90502e-08 109.89 5.64629e-08 3.07234e-08 109.89 2.99745e-08 3.47967e-08 109.89 -4.07007e-09 2.23863e-08 109.89 3.18463e-08 1.67674e-08 109.89 -9.29836e-10 2.86844e-08 109.89 2.72234e-08 2.58827e-08 109.89 1.25201e-08 3.14709e-08 109.89 -1.51463e-08 7.96681e-09 109.89 4.12469e-08 1.673e-08 109.89 1.26656e-08 2.30729e-08 109.89 5.91772e-08 3.03339e-08 109.89 4.85984e-08 3.46448e-08 109.89 -1.73646e-08 -1.67756e-08 109.89 -9.47562e-11 2.83492e-08 109.89 -1.02555e-08 2.25615e-08 109.89 -2.63443e-09 4.85223e-08 109.89 -5.10422e-09 5.1827e-08 109.89 1.79739e-09 8.50554e-09 109.89 3.24706e