<VTKFile type="UnstructuredGrid"  version="0.1"   > 
<UnstructuredGrid> 
<Piece  NumberOfPoints="  35" NumberOfCells=" 24"> 
<Points> 
<DataArray  type="Float64"  NumberOfComponents="3"  format="ascii" > 
24.000000 -6.000000 0.0 
31.200000 -6.000000 0.0 
36.000000 -6.000000 0.0 
40.800000 -6.000000 0.0 
48.000000 -6.000000 0.0 
24.000000 -3.428571 0.0 
31.200000 -3.428571 0.0 
36.000000 -3.428571 0.0 
40.800000 -3.428571 0.0 
48.000000 -3.428571 0.0 
24.000000 -1.714286 0.0 
31.200000 -1.714286 0.0 
36.000000 -1.714286 0.0 
40.800000 -1.714286 0.0 
48.000000 -1.714286 0.0 
24.000000 -0.000000 0.0 
31.200000 -0.000000 0.0 
36.000000 -0.000000 0.0 
40.800000 -0.000000 0.0 
48.000000 -0.000000 0.0 
24.000000 1.714286 0.0 
31.200000 1.714286 0.0 
36.000000 1.714286 0.0 
40.800000 1.714286 0.0 
48.000000 1.714286 0.0 
24.000000 3.428571 0.0 
31.200000 3.428571 0.0 
36.000000 3.428571 0.0 
40.800000 3.428571 0.0 
48.000000 3.428571 0.0 
24.000000 6.000000 0.0 
31.200000 6.000000 0.0 
36.000000 6.000000 0.0 
40.800000 6.000000 0.0 
48.000000 6.000000 0.0 
</DataArray> 
</Points> 
<Cells> 
<DataArray  type="Int32"  Name="connectivity"  format="ascii"> 
0 1 6 5 
1 2 7 6 
2 3 8 7 
3 4 9 8 
5 6 11 10 
6 7 12 11 
7 8 13 12 
8 9 14 13 
10 11 16 15 
11 12 17 16 
12 13 18 17 
13 14 19 18 
15 16 21 20 
16 17 22 21 
17 18 23 22 
18 19 24 23 
20 21 26 25 
21 22 27 26 
22 23 28 27 
23 24 29 28 
25 26 31 30 
26 27 32 31 
27 28 33 32 
28 29 34 33 
</DataArray> 
<DataArray  type="Int32"  Name="offsets"  format="ascii"> 
4 
8 
12 
16 
20 
24 
28 
32 
36 
40 
44 
48 
52 
56 
60 
64 
68 
72 
76 
80 
84 
88 
92 
96 
</DataArray> 
<DataArray  type="UInt8"  Name="types"  format="ascii"> 
9 
9 
9 
9 
9 
9 
9 
9 
9 
9 
9 
9 
9 
9 
9 
9 
9 
9 
9 
9 
9 
9 
9 
9 
</DataArray> 
</Cells> 
<PointData  Vectors="sigma"> 
<DataArray  type="Float64"  Name="sigma" NumberOfComponents="3" format="ascii"> 
-885.356282   -5.979855   -81.100737   
-732.982007   -24.090824   -58.360881   
-475.045783   -4.423491   -15.420237   
-343.549823   -21.807469   -18.245886   
-53.001012   -9.569529   -19.290791   
-533.511703   5.187137   -176.167791   
-386.842141   -6.140447   -128.286669   
-288.759283   -5.776420   -91.158248   
-185.923812   -9.007164   -93.847577   
-31.097351   0.759037   -89.372165   
-264.403851   8.423836   -193.793772   
-191.996842   3.769690   -151.847089   
-142.206055   1.260079   -111.127965   
-92.778120   -1.666261   -118.617714   
-15.995389   -3.012687   -111.403774   
0.000000   0.000000   -208.890516   
0.000000   0.000000   -164.300617   
-0.000000   -0.000000   -123.980583   
-0.000000   -0.000000   -131.848453   
-0.000000   -0.000000   -123.632873   
264.403851   -8.423836   -193.793772   
191.996842   -3.769690   -151.847089   
142.206055   -1.260079   -111.127965   
92.778120   1.666261   -118.617714   
15.995389   3.012687   -111.403774   
533.511703   -5.187137   -176.167791   
386.842141   6.140447   -128.286669   
288.759283   5.776420   -91.158248   
185.923812   9.007164   -93.847577   
31.097351   -0.759037   -89.372165   
885.356282   5.979855   -81.100737   
732.982007   24.090824   -58.360881   
475.045783   4.423491   -15.420237   
343.549823   21.807469   -18.245886   
53.001012   9.569529   -19.290791   
</DataArray> 
<DataArray  type="Float64"  Name="U" NumberOfComponents="3" format="ascii"> 
 -0.00120282    -0.00286782   0.0
 -0.00140225    -0.00447717   0.0
 -0.00149821    -0.00567538   0.0
 -0.00156307    -0.00693042   0.0
 -0.00159805    -0.00888057   0.0
 -0.00067793    -0.00284827   0.0
 -0.00079434    -0.00446284   0.0
 -0.00084811    -0.00566518   0.0
 -0.00088573    -0.00692444   0.0
 -0.00090540    -0.00887992   0.0
 -0.00033791    -0.00284104   0.0
 -0.00039607    -0.00445794   0.0
 -0.00042293    -0.00566162   0.0
 -0.00044171    -0.00692236   0.0
 -0.00045151    -0.00887958   0.0
  0.00000000    -0.00283853   0.0
  0.00000000    -0.00445619   0.0
  0.00000000    -0.00566036   0.0
  0.00000000    -0.00692161   0.0
  0.00000000    -0.00887953   0.0
  0.00033791    -0.00284104   0.0
  0.00039607    -0.00445794   0.0
  0.00042293    -0.00566162   0.0
  0.00044171    -0.00692236   0.0
  0.00045151    -0.00887958   0.0
  0.00067793    -0.00284827   0.0
  0.00079434    -0.00446284   0.0
  0.00084811    -0.00566518   0.0
  0.00088573    -0.00692444   0.0
  0.00090540    -0.00887992   0.0
  0.00120282    -0.00286782   0.0
  0.00140225    -0.00447717   0.0
  0.00149821    -0.00567538   0.0
  0.00156307    -0.00693042   0.0
  0.00159805    -0.00888057   0.0
</DataArray> 
</PointData> 
</Piece> 
</UnstructuredGrid> 
</VTKFile> 
