<VTKFile type="UnstructuredGrid"  version="0.1"   > 
<UnstructuredGrid> 
<Piece  NumberOfPoints="  133" NumberOfCells=" 108"> 
<Points> 
<DataArray  type="Float64"  NumberOfComponents="3"  format="ascii" > 
0.000000 -6.000000 0.0 
1.894737 -6.000000 0.0 
3.157895 -6.000000 0.0 
4.421053 -6.000000 0.0 
5.684211 -6.000000 0.0 
6.947368 -6.000000 0.0 
8.210526 -6.000000 0.0 
9.473684 -6.000000 0.0 
10.736842 -6.000000 0.0 
12.000000 -6.000000 0.0 
13.263158 -6.000000 0.0 
14.526316 -6.000000 0.0 
15.789474 -6.000000 0.0 
17.052632 -6.000000 0.0 
18.315789 -6.000000 0.0 
19.578947 -6.000000 0.0 
20.842105 -6.000000 0.0 
22.105263 -6.000000 0.0 
24.000000 -6.000000 0.0 
0.000000 -3.428571 0.0 
1.894737 -3.428571 0.0 
3.157895 -3.428571 0.0 
4.421053 -3.428571 0.0 
5.684211 -3.428571 0.0 
6.947368 -3.428571 0.0 
8.210526 -3.428571 0.0 
9.473684 -3.428571 0.0 
10.736842 -3.428571 0.0 
12.000000 -3.428571 0.0 
13.263158 -3.428571 0.0 
14.526316 -3.428571 0.0 
15.789474 -3.428571 0.0 
17.052632 -3.428571 0.0 
18.315789 -3.428571 0.0 
19.578947 -3.428571 0.0 
20.842105 -3.428571 0.0 
22.105263 -3.428571 0.0 
24.000000 -3.428571 0.0 
0.000000 -1.714286 0.0 
1.894737 -1.714286 0.0 
3.157895 -1.714286 0.0 
4.421053 -1.714286 0.0 
5.684211 -1.714286 0.0 
6.947368 -1.714286 0.0 
8.210526 -1.714286 0.0 
9.473684 -1.714286 0.0 
10.736842 -1.714286 0.0 
12.000000 -1.714286 0.0 
13.263158 -1.714286 0.0 
14.526316 -1.714286 0.0 
15.789474 -1.714286 0.0 
17.052632 -1.714286 0.0 
18.315789 -1.714286 0.0 
19.578947 -1.714286 0.0 
20.842105 -1.714286 0.0 
22.105263 -1.714286 0.0 
24.000000 -1.714286 0.0 
0.000000 -0.000000 0.0 
1.894737 -0.000000 0.0 
3.157895 -0.000000 0.0 
4.421053 -0.000000 0.0 
5.684211 -0.000000 0.0 
6.947368 -0.000000 0.0 
8.210526 -0.000000 0.0 
9.473684 -0.000000 0.0 
10.736842 -0.000000 0.0 
12.000000 -0.000000 0.0 
13.263158 -0.000000 0.0 
14.526316 -0.000000 0.0 
15.789474 -0.000000 0.0 
17.052632 -0.000000 0.0 
18.315789 -0.000000 0.0 
19.578947 -0.000000 0.0 
20.842105 -0.000000 0.0 
22.105263 -0.000000 0.0 
24.000000 -0.000000 0.0 
0.000000 1.714286 0.0 
1.894737 1.714286 0.0 
3.157895 1.714286 0.0 
4.421053 1.714286 0.0 
5.684211 1.714286 0.0 
6.947368 1.714286 0.0 
8.210526 1.714286 0.0 
9.473684 1.714286 0.0 
10.736842 1.714286 0.0 
12.000000 1.714286 0.0 
13.263158 1.714286 0.0 
14.526316 1.714286 0.0 
15.789474 1.714286 0.0 
17.052632 1.714286 0.0 
18.315789 1.714286 0.0 
19.578947 1.714286 0.0 
20.842105 1.714286 0.0 
22.105263 1.714286 0.0 
24.000000 1.714286 0.0 
0.000000 3.428571 0.0 
1.894737 3.428571 0.0 
3.157895 3.428571 0.0 
4.421053 3.428571 0.0 
5.684211 3.428571 0.0 
6.947368 3.428571 0.0 
8.210526 3.428571 0.0 
9.473684 3.428571 0.0 
10.736842 3.428571 0.0 
12.000000 3.428571 0.0 
13.263158 3.428571 0.0 
14.526316 3.428571 0.0 
15.789474 3.428571 0.0 
17.052632 3.428571 0.0 
18.315789 3.428571 0.0 
19.578947 3.428571 0.0 
20.842105 3.428571 0.0 
22.105263 3.428571 0.0 
24.000000 3.428571 0.0 
0.000000 6.000000 0.0 
1.894737 6.000000 0.0 
3.157895 6.000000 0.0 
4.421053 6.000000 0.0 
5.684211 6.000000 0.0 
6.947368 6.000000 0.0 
8.210526 6.000000 0.0 
9.473684 6.000000 0.0 
10.736842 6.000000 0.0 
12.000000 6.000000 0.0 
13.263158 6.000000 0.0 
14.526316 6.000000 0.0 
15.789474 6.000000 0.0 
17.052632 6.000000 0.0 
18.315789 6.000000 0.0 
19.578947 6.000000 0.0 
20.842105 6.000000 0.0 
22.105263 6.000000 0.0 
24.000000 6.000000 0.0 
</DataArray> 
</Points> 
<Cells> 
<DataArray  type="Int32"  Name="connectivity"  format="ascii"> 
0 1 20 19 
1 2 21 20 
2 3 22 21 
3 4 23 22 
4 5 24 23 
5 6 25 24 
6 7 26 25 
7 8 27 26 
8 9 28 27 
9 10 29 28 
10 11 30 29 
11 12 31 30 
12 13 32 31 
13 14 33 32 
14 15 34 33 
15 16 35 34 
16 17 36 35 
17 18 37 36 
19 20 39 38 
20 21 40 39 
21 22 41 40 
22 23 42 41 
23 24 43 42 
24 25 44 43 
25 26 45 44 
26 27 46 45 
27 28 47 46 
28 29 48 47 
29 30 49 48 
30 31 50 49 
31 32 51 50 
32 33 52 51 
33 34 53 52 
34 35 54 53 
35 36 55 54 
36 37 56 55 
38 39 58 57 
39 40 59 58 
40 41 60 59 
41 42 61 60 
42 43 62 61 
43 44 63 62 
44 45 64 63 
45 46 65 64 
46 47 66 65 
47 48 67 66 
48 49 68 67 
49 50 69 68 
50 51 70 69 
51 52 71 70 
52 53 72 71 
53 54 73 72 
54 55 74 73 
55 56 75 74 
57 58 77 76 
58 59 78 77 
59 60 79 78 
60 61 80 79 
61 62 81 80 
62 63 82 81 
63 64 83 82 
64 65 84 83 
65 66 85 84 
66 67 86 85 
67 68 87 86 
68 69 88 87 
69 70 89 88 
70 71 90 89 
71 72 91 90 
72 73 92 91 
73 74 93 92 
74 75 94 93 
76 77 96 95 
77 78 97 96 
78 79 98 97 
79 80 99 98 
80 81 100 99 
81 82 101 100 
82 83 102 101 
83 84 103 102 
84 85 104 103 
85 86 105 104 
86 87 106 105 
87 88 107 106 
88 89 108 107 
89 90 109 108 
90 91 110 109 
91 92 111 110 
92 93 112 111 
93 94 113 112 
95 96 115 114 
96 97 116 115 
97 98 117 116 
98 99 118 117 
99 100 119 118 
100 101 120 119 
101 102 121 120 
102 103 122 121 
103 104 123 122 
104 105 124 123 
105 106 125 124 
106 107 126 125 
107 108 127 126 
108 109 128 127 
109 110 129 128 
110 111 130 129 
111 112 131 130 
112 113 132 131 
</DataArray> 
<DataArray  type="Int32"  Name="offsets"  format="ascii"> 
4 
8 
12 
16 
20 
24 
28 
32 
36 
40 
44 
48 
52 
56 
60 
64 
68 
72 
76 
80 
84 
88 
92 
96 
100 
104 
108 
112 
116 
120 
124 
128 
132 
136 
140 
144 
148 
152 
156 
160 
164 
168 
172 
176 
180 
184 
188 
192 
196 
200 
204 
208 
212 
216 
220 
224 
228 
232 
236 
240 
244 
248 
252 
256 
260 
264 
268 
272 
276 
280 
284 
288 
292 
296 
300 
304 
308 
312 
316 
320 
324 
328 
332 
336 
340 
344 
348 
352 
356 
360 
364 
368 
372 
376 
380 
384 
388 
392 
396 
400 
404 
408 
412 
416 
420 
424 
428 
432 
</DataArray> 
<DataArray  type="UInt8"  Name="types"  format="ascii"> 
9 
9 
9 
9 
9 
9 
9 
9 
9 
9 
9 
9 
9 
9 
9 
9 
9 
9 
9 
9 
9 
9 
9 
9 
9 
9 
9 
9 
9 
9 
9 
9 
9 
9 
9 
9 
9 
9 
9 
9 
9 
9 
9 
9 
9 
9 
9 
9 
9 
9 
9 
9 
9 
9 
9 
9 
9 
9 
9 
9 
9 
9 
9 
9 
9 
9 
9 
9 
9 
9 
9 
9 
9 
9 
9 
9 
9 
9 
9 
9 
9 
9 
9 
9 
9 
9 
9 
9 
9 
9 
9 
9 
9 
9 
9 
9 
9 
9 
9 
9 
9 
9 
9 
9 
9 
9 
9 
9 
</DataArray> 
</Cells> 
<PointData  Vectors="sigma"> 
<DataArray  type="Float64"  Name="sigma" NumberOfComponents="3" format="ascii"> 
-2378.686009   -713.605803   -452.749769   
-1854.395544   3.286240   5.771858   
-1852.724570   -62.063952   -27.347997   
-1802.248279   -37.531084   -8.814939   
-1762.714724   -45.113196   -15.794175   
-1717.194800   -43.075618   -15.988384   
-1667.618635   -42.882771   -17.459686   
-1616.428958   -41.655600   -17.872481   
-1564.071522   -40.432351   -18.161840   
-1511.324644   -39.092976   -18.262235   
-1458.360280   -37.728772   -18.310471   
-1405.357788   -36.366966   -18.316098   
-1352.244088   -34.957671   -18.337852   
-1299.522450   -33.698388   -18.209079   
-1245.847477   -32.073171   -18.412788   
-1196.271889   -31.719837   -16.925633   
-1138.229186   -29.129416   -19.858109   
-1109.632682   -33.735780   -3.640457   
-1050.281269   -55.457351   24.092212   
-1017.392138   -305.217642   -93.390509   
-1162.276669   -162.910431   -174.834676   
-1082.163772   -35.244839   -90.785681   
-1057.900081   -27.474536   -97.066643   
-1018.649024   -15.919873   -89.274421   
-986.074632   -17.372152   -90.864154   
-954.101002   -17.249482   -91.177505   
-923.160241   -17.703244   -91.887421   
-892.617439   -17.593352   -92.223188   
-862.257088   -17.281627   -92.425378   
-831.976628   -16.811240   -92.512215   
-801.722001   -16.269378   -92.540332   
-771.477860   -15.750933   -92.526208   
-741.197421   -15.257149   -92.408904   
-710.894505   -15.039236   -92.386402   
-680.358855   -15.274364   -91.259346   
-648.552345   -15.396236   -94.230296   
-620.388156   -21.427842   -80.783355   
-568.940326   -5.441450   -80.109667   
-527.492343   -158.247703   -49.198312   
-525.950402   -56.119046   -106.773250   
-539.077440   -28.471369   -110.744875   
-524.974312   -0.681759   -118.920250   
-508.687369   4.644781   -118.407335   
-490.933321   7.098482   -116.834884   
-474.111531   6.378848   -115.978644   
-458.080285   5.715634   -115.324776   
-442.550942   5.069108   -115.040587   
-427.325353   4.639079   -114.889610   
-412.235037   4.330696   -114.833442   
-397.208324   4.079081   -114.806931   
-382.173802   3.838778   -114.838988   
-367.131389   3.503186   -114.820115   
-351.824046   3.080643   -115.215782   
-336.614752   2.426620   -114.717334   
-319.854168   1.778428   -118.704119   
-305.836862   2.679286   -108.207472   
-288.180857   1.290734   -93.485559   
0.000000   0.000000   -24.827930   
0.000000   0.000000   -116.438316   
0.000000   0.000000   -107.232893   
0.000000   0.000000   -133.855015   
0.000000   0.000000   -131.493276   
0.000000   -0.000000   -131.832598   
0.000000   0.000000   -129.850531   
0.000000   -0.000000   -128.932935   
0.000000   -0.000000   -128.265215   
0.000000   0.000000   -127.964386   
0.000000   0.000000   -127.818471   
0.000000   -0.000000   -127.773193   
0.000000   -0.000000   -127.811196   
0.000000   -0.000000   -127.885860   
-0.000000   -0.000000   -128.417513   
0.000000   0.000000   -128.104145   
0.000000   0.000000   -132.645644   
-0.000000   -0.000000   -119.957750   
-0.000000   -0.000000   -109.241185   
527.492343   158.247703   -49.198312   
525.950402   56.119046   -106.773250   
539.077440   28.471369   -110.744875   
524.974312   0.681759   -118.920250   
508.687369   -4.644781   -118.407335   
490.933321   -7.098482   -116.834884   
474.111531   -6.378848   -115.978644   
458.080285   -5.715634   -115.324776   
442.550942   -5.069108   -115.040587   
427.325353   -4.639079   -114.889610   
412.235037   -4.330696   -114.833442   
397.208324   -4.079081   -114.806931   
382.173802   -3.838778   -114.838988   
367.131389   -3.503186   -114.820115   
351.824046   -3.080643   -115.215782   
336.614752   -2.426620   -114.717334   
319.854168   -1.778428   -118.704119   
305.836862   -2.679286   -108.207472   
288.180857   -1.290734   -93.485559   
1017.392138   305.217642   -93.390509   
1162.276669   162.910431   -174.834676   
1082.163772   35.244839   -90.785681   
1057.900081   27.474536   -97.066643   
1018.649024   15.919873   -89.274421   
986.074632   17.372152   -90.864154   
954.101002   17.249482   -91.177505   
923.160241   17.703244   -91.887421   
892.617439   17.593352   -92.223188   
862.257088   17.281627   -92.425378   
831.976628   16.811240   -92.512215   
801.722001   16.269378   -92.540332   
771.477860   15.750933   -92.526208   
741.197421   15.257149   -92.408904   
710.894505   15.039236   -92.386402   
680.358855   15.274364   -91.259346   
648.552345   15.396236   -94.230296   
620.388156   21.427842   -80.783355   
568.940326   5.441450   -80.109667   
2378.686009   713.605803   -452.749769   
1854.395544   -3.286240   5.771858   
1852.724570   62.063952   -27.347997   
1802.248279   37.531084   -8.814939   
1762.714724   45.113196   -15.794175   
1717.194800   43.075618   -15.988384   
1667.618635   42.882771   -17.459686   
1616.428958   41.655600   -17.872481   
1564.071522   40.432351   -18.161840   
1511.324644   39.092976   -18.262235   
1458.360280   37.728772   -18.310471   
1405.357788   36.366966   -18.316098   
1352.244088   34.957671   -18.337852   
1299.522450   33.698388   -18.209079   
1245.847477   32.073171   -18.412788   
1196.271889   31.719837   -16.925633   
1138.229186   29.129416   -19.858109   
1109.632682   33.735780   -3.640457   
1050.281269   55.457351   24.092212   
</DataArray> 
<DataArray  type="Float64"  Name="U" NumberOfComponents="3" format="ascii"> 
  0.00000000     0.00000000   0.0
 -0.00013020    -0.00006851   0.0
 -0.00020788    -0.00011495   0.0
 -0.00028419    -0.00017651   0.0
 -0.00035872    -0.00025248   0.0
 -0.00043143    -0.00034381   0.0
 -0.00050214    -0.00045014   0.0
 -0.00057075    -0.00057115   0.0
 -0.00063719    -0.00070638   0.0
 -0.00070143    -0.00085539   0.0
 -0.00076346    -0.00101769   0.0
 -0.00082329    -0.00119282   0.0
 -0.00088089    -0.00138032   0.0
 -0.00093628    -0.00157970   0.0
 -0.00098945    -0.00179051   0.0
 -0.00104046    -0.00201223   0.0
 -0.00108923    -0.00224456   0.0
 -0.00113615    -0.00248637   0.0
 -0.00120282    -0.00286782   0.0
  0.00000000     0.00000000   0.0
 -0.00006242    -0.00003122   0.0
 -0.00010842    -0.00007846   0.0
 -0.00015308    -0.00013947   0.0
 -0.00019652    -0.00021656   0.0
 -0.00023852    -0.00030888   0.0
 -0.00027914    -0.00041632   0.0
 -0.00031844    -0.00053841   0.0
 -0.00035645    -0.00067473   0.0
 -0.00039317    -0.00082481   0.0
 -0.00042863    -0.00098819   0.0
 -0.00046281    -0.00116440   0.0
 -0.00049573    -0.00135297   0.0
 -0.00052738    -0.00155343   0.0
 -0.00055776    -0.00176532   0.0
 -0.00058686    -0.00198814   0.0
 -0.00061464    -0.00222159   0.0
 -0.00064112    -0.00246457   0.0
 -0.00067793    -0.00284827   0.0
  0.00000000     0.00000000   0.0
 -0.00003093    -0.00002301   0.0
 -0.00005282    -0.00006639   0.0
 -0.00007503    -0.00012671   0.0
 -0.00009682    -0.00020379   0.0
 -0.00011794    -0.00029652   0.0
 -0.00013834    -0.00040439   0.0
 -0.00015804    -0.00052691   0.0
 -0.00017707    -0.00066365   0.0
 -0.00019545    -0.00081412   0.0
 -0.00021318    -0.00097789   0.0
 -0.00023027    -0.00115447   0.0
 -0.00024673    -0.00134342   0.0
 -0.00026255    -0.00154427   0.0
 -0.00027773    -0.00175655   0.0
 -0.00029226    -0.00197979   0.0
 -0.00030610    -0.00221368   0.0
 -0.00031930    -0.00245717   0.0
 -0.00033791    -0.00284104   0.0
  0.00000000     0.00000000   0.0
  0.00000000    -0.00002010   0.0
  0.00000000    -0.00006258   0.0
  0.00000000    -0.00012223   0.0
  0.00000000    -0.00019930   0.0
  0.00000000    -0.00029210   0.0
  0.00000000    -0.00040014   0.0
  0.00000000    -0.00052282   0.0
  0.00000000    -0.00065971   0.0
  0.00000000    -0.00081033   0.0
  0.00000000    -0.00097423   0.0
  0.00000000    -0.00115095   0.0
  0.00000000    -0.00134004   0.0
  0.00000000    -0.00154102   0.0
  0.00000000    -0.00175345   0.0
  0.00000000    -0.00197683   0.0
  0.00000000    -0.00221089   0.0
  0.00000000    -0.00245447   0.0
  0.00000000    -0.00283853   0.0
  0.00000000     0.00000000   0.0
  0.00003093    -0.00002301   0.0
  0.00005282    -0.00006639   0.0
  0.00007503    -0.00012671   0.0
  0.00009682    -0.00020379   0.0
  0.00011794    -0.00029652   0.0
  0.00013834    -0.00040439   0.0
  0.00015804    -0.00052691   0.0
  0.00017707    -0.00066365   0.0
  0.00019545    -0.00081412   0.0
  0.00021318    -0.00097789   0.0
  0.00023027    -0.00115447   0.0
  0.00024673    -0.00134342   0.0
  0.00026255    -0.00154427   0.0
  0.00027773    -0.00175655   0.0
  0.00029226    -0.00197979   0.0
  0.00030610    -0.00221368   0.0
  0.00031930    -0.00245717   0.0
  0.00033791    -0.00284104   0.0
  0.00000000     0.00000000   0.0
  0.00006242    -0.00003122   0.0
  0.00010842    -0.00007846   0.0
  0.00015308    -0.00013947   0.0
  0.00019652    -0.00021656   0.0
  0.00023852    -0.00030888   0.0
  0.00027914    -0.00041632   0.0
  0.00031844    -0.00053841   0.0
  0.00035645    -0.00067473   0.0
  0.00039317    -0.00082481   0.0
  0.00042863    -0.00098819   0.0
  0.00046281    -0.00116440   0.0
  0.00049573    -0.00135297   0.0
  0.00052738    -0.00155343   0.0
  0.00055776    -0.00176532   0.0
  0.00058686    -0.00198814   0.0
  0.00061464    -0.00222159   0.0
  0.00064112    -0.00246457   0.0
  0.00067793    -0.00284827   0.0
  0.00000000     0.00000000   0.0
  0.00013020    -0.00006851   0.0
  0.00020788    -0.00011495   0.0
  0.00028419    -0.00017651   0.0
  0.00035872    -0.00025248   0.0
  0.00043143    -0.00034381   0.0
  0.00050214    -0.00045014   0.0
  0.00057075    -0.00057115   0.0
  0.00063719    -0.00070638   0.0
  0.00070143    -0.00085539   0.0
  0.00076346    -0.00101769   0.0
  0.00082329    -0.00119282   0.0
  0.00088089    -0.00138032   0.0
  0.00093628    -0.00157970   0.0
  0.00098945    -0.00179051   0.0
  0.00104046    -0.00201223   0.0
  0.00108923    -0.00224456   0.0
  0.00113615    -0.00248637   0.0
  0.00120282    -0.00286782   0.0
</DataArray> 
</PointData> 
</Piece> 
</UnstructuredGrid> 
</VTKFile> 
