<?xml version="1.0"?> 
<VTKFile type="StructuredGrid" version="0.1" byte_order="BigEndian" >
  <StructuredGrid  WholeExtent="0 32 0 1 0 8">
  <Piece Extent="0 32 0 1 0 8">
    <PointData Vectors="Disp"  >
      <DataArray type="Float32" Name="Stress" NumberOfComponents="6" format="ascii">
76519.533744   5208.844631   10113.472735   -729.907815   -11480.671741   57.630296   
69891.120557   4917.450660   8879.319695   4828.554735   -9138.942260   3944.447339   
60008.165408   4587.720778   7608.094813   5857.444350   -6111.304516   3369.052808   
49425.061737   3813.355510   6376.588039   7243.151035   -4087.096365   5147.945896   
36336.577826   2060.571459   4430.472804   5951.023369   -1610.148114   6635.661276   
25264.218150   -352.549283   3005.083537   4001.556742   553.623032   7040.490464   
15334.654754   -4100.289713   1477.115342   819.419996   2641.616116   6592.872526   
7421.969815   -8853.067667   118.646069   -2637.750483   4340.143479   5542.682993   
1520.300875   -14529.131470   -1108.020640   -6022.705903   5608.385991   4058.757633   
-2441.419167   -20819.269493   -2159.412348   -8824.384032   6369.613090   2369.704312   
-4689.849914   -27387.956747   -3021.829753   -10705.195042   6603.040181   630.376777   
-5543.911822   -33808.646873   -3679.803686   -11431.169868   6320.793154   -1010.985125   
-5382.023146   -39629.376560   -4129.303727   -10918.181301   5573.645719   -2444.631358   
-4635.038942   -44439.257549   -4388.883749   -9247.399009   4454.367828   -3589.440652   
-3747.965495   -47979.118653   -4517.908871   -6642.928541   3071.596671   -4404.112184   
-3073.817938   -50072.588950   -4556.374418   -3457.518705   1559.085114   -4877.748396   
-2845.851783   -50832.564622   -4598.332545   -63.050949   18.425918   -5035.067113   
-3073.817938   -50072.588950   -4556.374418   3457.518705   -1559.085114   -4877.748396   
-3747.965495   -47979.118653   -4517.908871   6642.928541   -3071.596671   -4404.112184   
-4635.038942   -44439.257549   -4388.883749   9247.399009   -4454.367828   -3589.440652   
-5382.023146   -39629.376560   -4129.303727   10918.181301   -5573.645719   -2444.631358   
-5543.911822   -33808.646872   -3679.803686   11431.169868   -6320.793154   -1010.985125   
-4689.849914   -27387.956747   -3021.829753   10705.195042   -6603.040181   630.376777   
-2441.419167   -20819.269493   -2159.412348   8824.384032   -6369.613090   2369.704312   
1520.300875   -14529.131470   -1108.020640   6022.705903   -5608.385991   4058.757633   
7421.969815   -8853.067667   118.646069   2637.750483   -4340.143479   5542.682993   
15334.654754   -4100.289713   1477.115342   -819.419996   -2641.616116   6592.872526   
25264.218150   -352.549283   3005.083537   -4001.556742   -553.623032   7040.490464   
36336.577826   2060.571459   4430.472804   -5951.023369   1610.148114   6635.661276   
49425.061737   3813.355510   6376.588039   -7243.151035   4087.096365   5147.945896   
60008.165408   4587.720778   7608.094813   -5857.444350   6111.304516   3369.052808   
69891.120557   4917.450660   8879.319695   -4828.554735   9138.942260   3944.447339   
76519.533744   5208.844631   10113.472735   729.907815   11480.671741   57.630296   
-67284.251805   7805.331628   -6562.519704   -1060.505791   -6656.739504   5177.122962   
-57596.859493   -2882.221057   -6485.660652   -17354.914134   -3654.629084   -485.570800   
-40756.567862   -2798.775090   -3180.742417   -16935.276191   -4215.507645   -1538.626912   
-26265.689395   -6940.203297   -2138.137001   -17278.632734   -3335.175269   -2279.487402   
-12829.592837   -8301.900747   -774.620025   -13594.213925   -3017.413623   -2802.166511   
-2443.327599   -8554.528943   -68.223196   -8471.891172   -2708.478182   -3071.963863   
4886.116344   -6542.965703   417.295798   -2346.894055   -2501.968215   -3208.822770   
9139.946582   -2375.958317   723.244839   3798.229971   -2315.339519   -3252.406146   
10730.938043   3892.113929   1048.682900   9255.088570   -2121.918194   -3273.592615   
10204.539881   11853.495523   1503.800245   13398.854090   -1906.238373   -3317.769487   
8212.191182   20857.983704   2132.307427   15741.684677   -1664.422262   -3406.976989   
5442.024932   30018.141966   2886.376783   15986.368298   -1395.145552   -3533.312922   
2557.231568   38325.074932   3651.496497   14107.398040   -1092.195580   -3669.195869   
122.241886   44845.605597   4292.131804   10403.098012   -754.915418   -3786.062882   
-1461.306902   48878.089113   4698.305178   5451.960579   -373.970967   -3858.912431   
-2054.069184   50193.013245   4792.479360   3.849865   -39.965796   -3888.285492   
-1461.306902   48878.089113   4698.305178   -5451.960579   373.970967   -3858.912431   
122.241886   44845.605597   4292.131804   -10403.098012   754.915418   -3786.062882   
2557.231568   38325.074932   3651.496497   -14107.398040   1092.195580   -3669.195869   
5442.024932   30018.141966   2886.376783   -15986.368298   1395.145552   -3533.312922   
8212.191182   20857.983704   2132.307427   -15741.684677   1664.422262   -3406.976989   
10204.539881   11853.495523   1503.800245   -13398.854090   1906.238373   -3317.769487   
10730.938043   3892.113929   1048.682900   -9255.088570   2121.918194   -3273.592615   
9139.946582   -2375.958317   723.244839   -3798.229971   2315.339519   -3252.406146   
4886.116344   -6542.965703   417.295798   2346.894055   2501.968215   -3208.822770   
-2443.327599   -8554.528943   -68.223196   8471.891172   2708.478182   -3071.963863   
-12829.592837   -8301.900747   -774.620025   13594.213925   3017.413623   -2802.166511   
-26265.689395   -6940.203297   -2138.137001   17278.632734   3335.175269   -2279.487402   
-40756.567862   -2798.775090   -3180.742417   16935.276191   4215.507645   -1538.626912   
-57596.859493   -2882.221057   -6485.660652   17354.914134   3654.629084   -485.570800   
-67284.251805   7805.331628   -6562.519704   1060.505791   6656.739504   5177.122962   
-67160.381673   17102.706139   -4962.756869   0.000000   11413.045435   325.660413   
-67284.251805   7805.331628   -6562.519704   1060.505791   6656.739504   5177.122962   
81001.944200   1771.795443   20667.599253   1322.916344   -5269.849904   -24.289352   
81021.125329   4949.389719   21750.363706   1447.977729   -4713.650361   -362.001621   
68703.514659   6150.474285   18469.247451   7890.115279   -3563.762035   52.797335   
50496.953012   5492.617599   12890.042440   9845.345692   -2303.057594   1288.909390   
37929.339120   5706.689558   9829.436909   10949.429766   -881.744385   2647.054015   
24359.197502   4039.933205   6401.074041   8068.716701   704.328390   3739.043398   
12579.351077   764.884038   3384.965371   3822.426793   2233.660211   4235.826987   
2791.672495   -4614.915710   509.275373   -1824.538067   3563.393773   4178.867048   
-4406.399759   -11730.698319   -2058.843916   -7568.896094   4534.369598   3603.387595   
-8828.793128   -20071.869732   -4237.038291   -12517.458269   5072.013580   2652.737783   
-10675.050687   -28858.267908   -5937.952152   -15859.433323   5156.284367   1487.692163   
-10447.234902   -37301.077248   -7135.278615   -17166.970218   4830.986118   275.488906   
-8869.721097   -44723.766622   -7869.441851   -16389.119912   4175.378702   -844.084142   
-6721.808195   -50663.533985   -8239.291662   -13794.219593   3282.031523   -1771.100391   
-4711.075447   -54911.268412   -8383.414499   -9840.236876   2240.399070   -2447.302196   
-3339.020063   -57381.663099   -8411.863402   -5085.692847   1123.944302   -2849.692872   
-2873.021256   -58247.335459   -8433.045174   -60.007418   -3.781519   -2978.798589   
-3339.020063   -57381.663099   -8411.863402   5085.692847   -1123.944302   -2849.692872   
-4711.075447   -54911.268412   -8383.414499   9840.236876   -2240.399070   -2447.302196   
-6721.808195   -50663.533985   -8239.291662   13794.219593   -3282.031523   -1771.100391   
-8869.721097   -44723.766622   -7869.441851   16389.119912   -4175.378702   -844.084142   
-10447.234902   -37301.077248   -7135.278615   17166.970218   -4830.986118   275.488906   
-10675.050687   -28858.267908   -5937.952152   15859.433323   -5156.284367   1487.692163   
-8828.793128   -20071.869732   -4237.038291   12517.458269   -5072.013580   2652.737783   
-4406.399759   -11730.698319   -2058.843916   7568.896094   -4534.369598   3603.387595   
2791.672495   -4614.915710   509.275373   1824.538067   -3563.393773   4178.867048   
12579.351077   764.884038   3384.965371   -3822.426793   -2233.660211   4235.826987   
24359.197502   4039.933205   6401.074041   -8068.716701   -704.328390   3739.043398   
37929.339120   5706.689558   9829.436909   -10949.429766   881.744385   2647.054015   
50496.953012   5492.617599   12890.042440   -9845.345692   2303.057594   1288.909390   
68703.514659   6150.474285   18469.247451   -7890.115279   3563.762035   52.797335   
81021.125329   4949.389719   21750.363706   -1447.977729   4713.650361   -362.001621   
81001.944200   1771.795443   20667.599252   -1322.916344   5269.849904   -24.289352   
-71721.696438   -8914.709883   -18798.930951   -21068.392660   -2326.702260   1550.017850   
-51526.545693   4669.943151   -8057.217890   -9199.593282   -3078.629169   1817.904014   
-40385.901062   -3737.765926   -7211.520831   -16173.103870   -2379.530822   960.772963   
-25463.954487   -3831.477094   -3326.358449   -13498.580334   -2260.883860   -20.265349   
-14037.925164   -5238.568984   -1383.275807   -10683.819931   -2098.340095   -969.791342   
-4956.552775   -4768.951795   21.560066   -6324.846751   -2065.554938   -1757.167848   
1206.808434   -2975.387975   670.129241   -1574.689000   -1975.390992   -2318.620991   
4798.484625   493.176181   974.965228   3078.239573   -1817.269337   -2657.276418   
6229.586213   5556.517112   1230.807844   7154.766599   -1561.552046   -2807.458859   
6037.875156   12003.092125   1698.328865   10250.101431   -1238.231217   -2832.055934   
4764.031527   19362.419929   2475.537628   12024.335179   -896.515087   -2794.179415   
2928.729440   26936.720661   3501.312873   12235.396323   -590.055568   -2740.475241   
998.589094   33880.598035   4592.859254   10829.777867   -352.068429   -2695.360076   
-636.508175   39382.052091   5536.088762   8007.747825   -186.565529   -2665.417821   
-1708.712983   42795.219163   6138.069667   4201.116529   -81.249864   -2650.101692   
-2113.806113   43927.703681   6336.467389   1.484099   7.935721   -2645.012060   
-1708.712983   42795.219163   6138.069667   -4201.116529   81.249864   -2650.101692   
-636.508175   39382.052091   5536.088762   -8007.747825   186.565529   -2665.417821   
998.589094   33880.598035   4592.859254   -10829.777867   352.068429   -2695.360076   
2928.729440   26936.720661   3501.312873   -12235.396323   590.055568   -2740.475241   
4764.031527   19362.419929   2475.537628   -12024.335179   896.515087   -2794.179415   
6037.875156   12003.092125   1698.328865   -10250.101431   1238.231217   -2832.055934   
6229.586213   5556.517112   1230.807844   -7154.766599   1561.552046   -2807.458859   
4798.484625   493.176181   974.965228   -3078.239573   1817.269337   -2657.276418   
1206.808433   -2975.387975   670.129241   1574.689000   1975.390992   -2318.620991   
-4956.552775   -4768.951795   21.560066   6324.846751   2065.554938   -1757.167848   
-14037.925164   -5238.568984   -1383.275807   10683.819931   2098.340095   -969.791342   
-25463.954487   -3831.477094   -3326.358449   13498.580334   2260.883860   -20.265349   
-40385.901062   -3737.765926   -7211.520831   16173.103870   2379.530822   960.772963   
-51526.545693   4669.943151   -8057.217890   9199.593282   3078.629169   1817.904014   
-71721.696438   -8914.709883   -18798.930951   21068.392660   2326.702260   1550.017850   
-90822.942291   -23692.997800   -29449.003225   0.000000   919.775283   -13.853692   
-71721.696438   -8914.709883   -18798.930951   21068.392660   2326.702260   1550.017850   
84773.350574   2564.875514   28538.807812   1116.877988   605.419799   15.519558   
83148.459625   5401.581778   28722.969592   1382.369815   364.442010   -273.615282   
69516.208305   6174.484154   24599.436454   6993.387524   29.396357   -167.022719   
51157.044631   5277.943698   18640.250292   8879.513548   -100.101319   -242.740165   
37984.473846   5111.411295   14461.710080   9647.526337   -91.153293   -124.054501   
24443.173333   3177.718377   9747.484641   6847.082889   62.062087   115.034638   
12601.755245   -418.127148   5155.805832   2717.485532   298.927127   389.722730   
2825.557573   -6013.591723   690.444454   -2665.842270   573.746754   569.592800   
-4398.784678   -13300.024920   -3444.595262   -8127.315324   832.165078   642.024344   
-8899.300684   -21779.392943   -7071.561276   -12813.808979   1025.364699   601.688749   
-10881.540746   -30716.194814   -10058.362378   -15961.413706   1123.714842   480.029865   
-10828.376072   -39337.968125   -12341.178886   -17153.488990   1114.611302   312.015510   
-9431.527269   -46961.319194   -13945.411679   -16326.512983   1004.474791   134.089506   
-7440.912773   -53095.959610   -14968.093681   -13725.866626   812.720288   -25.048771   
-5546.849535   -57503.799684   -15559.409100   -9788.275730   564.583225   -146.250066   
-4242.646532   -60074.444091   -15841.041438   -5058.457526   286.735873   -219.873801   
-3800.642635   -60976.623650   -15947.890646   -59.341409   0.746579   -244.179786   
-4242.646532   -60074.444091   -15841.041438   5058.457526   -286.735873   -219.873801   
-5546.849535   -57503.799684   -15559.409100   9788.275730   -564.583225   -146.250066   
-7440.912773   -53095.959610   -14968.093681   13725.866626   -812.720288   -25.048771   
-9431.527269   -46961.319194   -13945.411679   16326.512983   -1004.474791   134.089506   
-10828.376072   -39337.968125   -12341.178886   17153.488990   -1114.611302   312.015510   
-10881.540746   -30716.194814   -10058.362378   15961.413706   -1123.714842   480.029865   
-8899.300684   -21779.392943   -7071.561276   12813.808979   -1025.364699   601.688749   
-4398.784678   -13300.024920   -3444.595262   8127.315324   -832.165078   642.024344   
2825.557573   -6013.591723   690.444454   2665.842270   -573.746754   569.592800   
12601.755245   -418.127148   5155.805832   -2717.485532   -298.927127   389.722730   
24443.173333   3177.718377   9747.484641   -6847.082889   -62.062087   115.034638   
37984.473846   5111.411295   14461.710080   -9647.526337   91.153293   -124.054501   
51157.044631   5277.943698   18640.250292   -8879.513548   100.101319   -242.740165   
69516.208305   6174.484154   24599.436454   -6993.387524   -29.396357   -167.022719   
83148.459624   5401.581778   28722.969592   -1382.369815   -364.442010   -273.615282   
84773.350574   2564.875514   28538.807812   -1116.877988   -605.419799   15.519558   
-73238.041711   -6254.452078   -23285.505993   -18742.170541   89.742506   24.122295   
-53443.929051   3551.855985   -14187.709699   -10980.332948   126.977452   694.086113   
-41313.030294   -4106.851151   -12448.088462   -16880.182477   261.377405   911.985661   
-26177.001941   -4981.863037   -7898.751240   -14547.647915   313.552432   735.096951   
-14291.488933   -6309.803854   -4669.198284   -11434.015345   235.898618   408.300422   
-4874.395411   -5840.287342   -1853.709789   -6857.935355   117.356973   82.021394   
1633.320079   -3807.768398   400.192474   -1809.788029   -21.505923   -157.972701   
5491.964978   -26.853343   2285.727201   3124.234632   -106.821863   -278.787320   
7095.672427   5391.810104   3964.127660   7441.654380   -116.399042   -299.525984   
6957.219817   12161.522559   5566.811787   10707.782667   -50.480827   -264.621104   
5628.118815   19772.077695   7149.437901   12567.287586   55.543181   -223.284336   
3662.631536   27508.487916   8676.960123   12776.631342   154.050330   -208.029044   
1575.692456   34534.922110   10042.077792   11294.197438   203.620598   -225.701374   
-200.131775   40062.852670   11111.991588   8341.004629   185.101661   -262.138062   
-1362.358644   43481.761293   11769.042104   4372.778867   108.877034   -294.784205   
-1804.656295   44603.763569   11966.227285   2.863861   -1.862840   -307.539744   
-1362.358644   43481.761293   11769.042104   -4372.778867   -108.877034   -294.784205   
-200.131775   40062.852670   11111.991588   -8341.004629   -185.101661   -262.138062   
1575.692456   34534.922110   10042.077792   -11294.197438   -203.620598   -225.701374   
3662.631536   27508.487916   8676.960123   -12776.631342   -154.050330   -208.029044   
5628.118815   19772.077695   7149.437901   -12567.287586   -55.543181   -223.284336   
6957.219817   12161.522559   5566.811787   -10707.782667   50.480827   -264.621104   
7095.672427   5391.810104   3964.127660   -7441.654380   116.399042   -299.525984   
5491.964978   -26.853343   2285.727201   -3124.234632   106.821863   -278.787320   
1633.320079   -3807.768398   400.192474   1809.788029   21.505923   -157.972701   
-4874.395411   -5840.287342   -1853.709789   6857.935355   -117.356973   82.021394   
-14291.488933   -6309.803854   -4669.198284   11434.015345   -235.898618   408.300422   
-26177.001941   -4981.863037   -7898.751240   14547.647915   -313.552432   735.096951   
-41313.030294   -4106.851151   -12448.088462   16880.182477   -261.377405   911.985661   
-53443.929051   3551.855985   -14187.709699   10980.332948   -126.977452   694.086113   
-73238.041711   -6254.452078   -23285.505993   18742.170541   -89.742506   24.122295   
-90924.068132   -17474.209111   -31911.900481   0.000000   -136.418907   -17.754064   
-73238.041711   -6254.452078   -23285.505993   18742.170541   -89.742506   24.122295   
84218.060780   2349.706007   27345.369496   997.983011   -71.783868   -2.812333   
82386.125268   4853.227954   27639.315421   1769.210289   -84.339696   162.637934   
68932.208738   5538.255103   23945.475158   7287.491436   -103.068152   271.046810   
50737.252728   4738.136891   18328.656980   9058.821853   -86.628164   258.397385   
37324.500282   4550.302373   14304.327444   9595.148588   -45.032220   193.682904   
23743.736337   2629.934808   9664.650091   6669.617211   33.415001   170.083233   
12008.461240   -933.012721   5067.072181   2413.147429   133.266645   169.404930   
2418.246612   -6470.905564   513.957508   -3034.406403   250.094107   170.867093   
-4577.160239   -13669.946576   -3749.746617   -8516.483730   366.135704   152.254065   
-8862.760390   -22053.465998   -7539.021959   -13192.126298   465.567800   104.222010   
-10666.940400   -30908.591419   -10703.260850   -16314.479355   531.599640   26.018594   
-10481.019466   -39482.676204   -13165.978359   -17474.710224   551.431824   -74.881921   
-8988.973718   -47095.640858   -14935.618575   -16607.890519   518.565838   -185.136031   
-6931.011728   -53247.177741   -16095.742172   -13954.649998   434.935858   -288.848016   
-4990.177199   -57680.950777   -16786.119234   -9949.851134   310.579289   -371.618080   
-3658.986208   -60273.828256   -17127.367118   -5141.546181   159.839537   -423.713216   
-3206.606116   -61181.823502   -17251.071592   -59.176238   -0.454711   -440.957364   
-3658.986208   -60273.828256   -17127.367118   5141.546181   -159.839537   -423.713216   
-4990.177199   -57680.950777   -16786.119234   9949.851134   -310.579289   -371.618080   
-6931.011728   -53247.177741   -16095.742172   13954.649998   -434.935858   -288.848016   
-8988.973718   -47095.640858   -14935.618575   16607.890519   -518.565838   -185.136031   
-10481.019466   -39482.676204   -13165.978359   17474.710224   -551.431824   -74.881921   
-10666.940400   -30908.591419   -10703.260850   16314.479355   -531.599640   26.018594   
-8862.760390   -22053.465998   -7539.021959   13192.126298   -465.567800   104.222010   
-4577.160239   -13669.946576   -3749.746617   8516.483730   -366.135704   152.254065   
2418.246612   -6470.905564   513.957508   3034.406403   -250.094107   170.867093   
12008.461240   -933.012721   5067.072181   -2413.147429   -133.266645   169.404930   
23743.736337   2629.934808   9664.650091   -6669.617211   -33.415001   170.083233   
37324.500282   4550.302373   14304.327444   -9595.148588   45.032220   193.682904   
50737.252728   4738.136891   18328.656980   -9058.821853   86.628164   258.397385   
68932.208738   5538.255103   23945.475158   -7287.491436   103.068152   271.046810   
82386.125268   4853.227954   27639.315421   -1769.210289   84.339696   162.637934   
84218.060780   2349.706007   27345.369496   -997.983011   71.783868   -2.812333   
-73182.537376   -5167.843613   -22070.158688   -18120.972743   -27.016639   58.026681   
-53849.814926   3785.829240   -13559.418705   -11300.334038   -141.413749   226.131945   
-41196.321334   -3595.264237   -11968.190966   -16925.356224   -18.301876   305.917198   
-26017.263483   -4663.728117   -7710.989760   -14637.252885   29.317486   284.259275   
-14073.795111   -6139.953709   -4588.372993   -11501.015100   62.326756   179.545682   
-4664.314234   -5797.953804   -1749.673800   -6887.109508   54.241407   48.632011   
1792.067799   -3876.178075   605.271402   -1797.922773   37.302629   -62.532247   
5572.582445   -160.962775   2646.545669   3183.580456   27.907634   -139.596898   
7079.034798   5229.667170   4487.525153   7540.760506   39.360199   -184.547873   
6839.752964   12009.186558   6231.590709   10834.423381   71.557430   -209.458737   
5416.367444   19655.678643   7914.624576   12704.995311   114.486805   -228.041700   
3371.325011   27442.072886   9501.098852   12908.990602   150.131313   -250.615791   
1222.574985   34518.530857   10892.022583   11406.283697   160.017292   -280.006977   
-595.220530   40088.046272   11969.920327   8421.580273   134.278105   -311.006645   
-1783.365325   43529.490555   12624.138274   4414.045760   75.352522   -334.554033   
-2230.539084   44664.631824   12825.495317   2.942380   0.786867   -343.094848   
-1783.365325   43529.490555   12624.138274   -4414.045760   -75.352522   -334.554033   
-595.220530   40088.046272   11969.920327   -8421.580273   -134.278105   -311.006645   
1222.574985   34518.530857   10892.022583   -11406.283697   -160.017292   -280.006977   
3371.325011   27442.072886   9501.098852   -12908.990602   -150.131313   -250.615791   
5416.367444   19655.678643   7914.624576   -12704.995311   -114.486805   -228.041700   
6839.752964   12009.186558   6231.590709   -10834.423381   -71.557430   -209.458737   
7079.034798   5229.667170   4487.525153   -7540.760506   -39.360199   -184.547873   
5572.582445   -160.962775   2646.545669   -3183.580456   -27.907634   -139.596898   
1792.067799   -3876.178075   605.271402   1797.922773   -37.302629   -62.532247   
-4664.314234   -5797.953804   -1749.673800   6887.109508   -54.241407   48.632011   
-14073.795111   -6139.953709   -4588.372993   11501.015100   -62.326756   179.545682   
-26017.263483   -4663.728117   -7710.989760   14637.252885   -29.317486   284.259275   
-41196.321334   -3595.264237   -11968.190966   16925.356224   18.301876   305.917198   
-53849.814926   3785.829240   -13559.418705   11300.334038   141.413749   226.131945   
-73182.537376   -5167.843613   -22070.158688   18120.972743   27.016639   58.026681   
-89701.173577   -15562.463506   -30208.319308   0.000000   -194.579157   3.054915   
-73182.537376   -5167.843613   -22070.158688   18120.972743   27.016639   58.026681   
84379.547702   2691.894665   28265.618613   971.386534   0.000000   -0.000000   
82456.821370   5189.890973   28365.376894   1880.950654   0.000000   0.000000   
69077.423163   5871.236873   24472.391423   7245.590835   0.000000   0.000000   
50963.593884   5024.773178   18754.656912   8975.795848   0.000000   0.000000   
37407.395898   4698.598367   14540.756361   9416.647502   0.000000   0.000000   
23755.403980   2645.629163   9762.460388   6465.727903   0.000000   0.000000   
11963.681636   -1054.951138   5019.707103   2207.158715   -0.000000   0.000000   
2351.847654   -6695.941006   332.004952   -3190.878327   0.000000   0.000000   
-4664.862662   -13966.203238   -4073.987368   -8599.452955   0.000000   0.000000   
-8980.471854   -22384.610412   -8008.826311   -13195.591404   -0.000000   -0.000000   
-10830.189967   -31251.471660   -11324.509577   -16255.036316   -0.000000   -0.000000   
-10699.702960   -39826.175200   -13938.518200   -17379.904783   0.000000   0.000000   
-9263.825508   -47439.593489   -15851.192028   -16506.035525   -0.000000   -0.000000   
-7253.311618   -53594.799490   -17134.357788   -13866.860944   -0.000000   0.000000   
-5346.574954   -58035.294694   -17918.601348   -9887.998680   0.000000   0.000000   
-4034.281107   -60632.790205   -18316.403964   -5110.251831   -0.000000   0.000000   
-3588.482011   -61544.048636   -18459.873653   -59.293405   -0.000000   -0.000000   
-4034.281107   -60632.790205   -18316.403964   5110.251831   -0.000000   0.000000   
-5346.574954   -58035.294694   -17918.601348   9887.998680   -0.000000   0.000000   
-7253.311618   -53594.799490   -17134.357788   13866.860944   -0.000000   -0.000000   
-9263.825508   -47439.593489   -15851.192028   16506.035525   -0.000000   0.000000   
-10699.702960   -39826.175200   -13938.518200   17379.904783   -0.000000   -0.000000   
-10830.189967   -31251.471660   -11324.509577   16255.036316   0.000000   -0.000000   
-8980.471854   -22384.610412   -8008.826311   13195.591404   0.000000   -0.000000   
-4664.862662   -13966.203238   -4073.987368   8599.452955   0.000000   -0.000000   
2351.847654   -6695.941006   332.004952   3190.878327   0.000000   -0.000000   
11963.681636   -1054.951138   5019.707103   -2207.158715   0.000000   -0.000000   
23755.403980   2645.629163   9762.460388   -6465.727903   0.000000   -0.000000   
37407.395898   4698.598367   14540.756361   -9416.647502   0.000000   -0.000000   
50963.593884   5024.773178   18754.656912   -8975.795848   0.000000   -0.000000   
69077.423163   5871.236873   24472.391423   -7245.590835   0.000000   -0.000000   
82456.821370   5189.890973   28365.376894   -1880.950654   0.000000   -0.000000   
84379.547702   2691.894665   28265.618613   -971.386534   0.000000   0.000000   
-73447.290825   -5209.781239   -22331.717171   -17745.389678   -0.000000   0.000000   
-54232.609677   3352.542730   -14064.128196   -11457.374935   -0.000000   -0.000000   
-41408.139997   -3775.848979   -12317.366450   -16941.128517   0.000000   -0.000000   
-26135.980653   -4853.369610   -8007.373012   -14698.432248   0.000000   -0.000000   
-14098.341592   -6266.454047   -4773.440463   -11534.177943   -0.000000   -0.000000   
-4629.059951   -5892.869665   -1806.676168   -6906.766548   -0.000000   -0.000000   
1881.403617   -3922.899770   709.348881   -1794.923295   -0.000000   -0.000000   
5704.384542   -161.058689   2917.361937   3207.859482   -0.000000   -0.000000   
7247.488404   5281.711302   4920.467752   7586.799845   -0.000000   -0.000000   
7036.343273   12115.493123   6804.312745   10899.747721   -0.000000   -0.000000   
5631.757803   19819.007537   8595.237416   12784.821962   -0.000000   -0.000000   
3594.925795   27661.864057   10252.815294   12994.611762   0.000000   0.000000   
1446.217693   34790.303701   11683.120605   11486.022551   0.000000   -0.000000   
-376.721802   40400.229670   12776.872790   8482.741970   -0.000000   -0.000000   
-1568.747196   43869.305072   13437.157196   4447.086448   0.000000   -0.000000   
-2019.466852   45010.295476   13636.805889   3.032511   0.000000   0.000000   
-1568.747197   43869.305072   13437.157196   -4447.086448   0.000000   0.000000   
-376.721802   40400.229670   12776.872790   -8482.741970   0.000000   -0.000000   
1446.217693   34790.303701   11683.120605   -11486.022551   0.000000   -0.000000   
3594.925795   27661.864057   10252.815294   -12994.611762   0.000000   -0.000000   
5631.757803   19819.007537   8595.237416   -12784.821962   0.000000   -0.000000   
7036.343273   12115.493123   6804.312745   -10899.747721   -0.000000   0.000000   
7247.488404   5281.711302   4920.467752   -7586.799845   0.000000   -0.000000   
5704.384542   -161.058690   2917.361937   -3207.859482   0.000000   0.000000   
1881.403617   -3922.899770   709.348881   1794.923295   0.000000   -0.000000   
-4629.059951   -5892.869665   -1806.676168   6906.766548   -0.000000   0.000000   
-14098.341592   -6266.454047   -4773.440463   11534.177943   -0.000000   0.000000   
-26135.980653   -4853.369610   -8007.373012   14698.432248   -0.000000   0.000000   
-41408.139997   -3775.848979   -12317.366450   16941.128517   -0.000000   0.000000   
-54232.609677   3352.542730   -14064.128196   11457.374935   -0.000000   0.000000   
-73447.290825   -5209.781239   -22331.717171   17745.389678   0.000000   -0.000000   
-89698.713529   -15134.900668   -30076.174065   0.000000   0.000000   0.000000   
-73447.290825   -5209.781239   -22331.717171   17745.389678   0.000000   -0.000000   
84218.060780   2349.706007   27345.369496   997.983011   71.783868   2.812333   
82386.125268   4853.227954   27639.315421   1769.210289   84.339696   -162.637934   
68932.208738   5538.255103   23945.475158   7287.491436   103.068152   -271.046810   
50737.252728   4738.136891   18328.656980   9058.821853   86.628164   -258.397385   
37324.500282   4550.302373   14304.327444   9595.148588   45.032220   -193.682904   
23743.736337   2629.934808   9664.650091   6669.617211   -33.415001   -170.083233   
12008.461240   -933.012721   5067.072181   2413.147429   -133.266645   -169.404930   
2418.246612   -6470.905564   513.957508   -3034.406403   -250.094107   -170.867093   
-4577.160239   -13669.946576   -3749.746617   -8516.483730   -366.135704   -152.254065   
-8862.760390   -22053.465998   -7539.021959   -13192.126298   -465.567800   -104.222010   
-10666.940400   -30908.591419   -10703.260850   -16314.479355   -531.599640   -26.018594   