<VTKFile type="UnstructuredGrid"  version="0.1"   > 
<UnstructuredGrid> 
<Piece  NumberOfPoints="  4" NumberOfCells=" 1"> 
<Points> 
<DataArray  type="Float64"  NumberOfComponents="3"  format="ascii" > 
0.000000 -6.000000 0.0 
48.000000 -6.000000 0.0 
0.000000 6.000000 0.0 
48.000000 6.000000 0.0 
</DataArray> 
</Points> 
<Cells> 
<DataArray  type="Int32"  Name="connectivity"  format="ascii"> 
0 1 3 2 
</DataArray> 
<DataArray  type="Int32"  Name="offsets"  format="ascii"> 
4 
</DataArray> 
<DataArray  type="UInt8"  Name="types"  format="ascii"> 
9 
</DataArray> 
</Cells> 
<PointData  Vectors="sigma"> 
<DataArray  type="Float64"  Name="sigma" NumberOfComponents="3" format="ascii"> 
-10.989   -3.2967   -18.034   
-10.989   -3.2967   12.7352   
10.989   3.2967   -18.034   
10.989   3.2967   12.7352   
</DataArray> 
<DataArray  type="Float64"  Name="U" NumberOfComponents="3" format="ascii"> 
-0.001828657575   0.005172682719   0.0
-0.017828657575   -0.084477945877   0.0
0.001828657575   0.005172682719   0.0
0.017828657575   -0.084477945877   0.0
</DataArray> 
</PointData> 
</Piece> 
</UnstructuredGrid> 
</VTKFile> 
