<VTKFile type="UnstructuredGrid"  version="0.1"   > 
<UnstructuredGrid> 
<Piece  NumberOfPoints="  1056" NumberOfCells=" 992"> 
<Points> 
<DataArray  type="Float64"  NumberOfComponents="3"  format="ascii" > 
0.000000 0.000000 0.0 
0.031250 0.000000 0.0 
0.062500 0.000000 0.0 
0.093750 0.000000 0.0 
0.125000 0.000000 0.0 
0.156250 0.000000 0.0 
0.187500 0.000000 0.0 
0.218750 0.000000 0.0 
0.250000 0.000000 0.0 
0.281250 0.000000 0.0 
0.312500 0.000000 0.0 
0.343750 0.000000 0.0 
0.375000 0.000000 0.0 
0.406250 0.000000 0.0 
0.437500 0.000000 0.0 
0.468750 0.000000 0.0 
0.500000 0.000000 0.0 
0.531250 0.000000 0.0 
0.562500 0.000000 0.0 
0.593750 0.000000 0.0 
0.625000 0.000000 0.0 
0.656250 0.000000 0.0 
0.687500 0.000000 0.0 
0.718750 0.000000 0.0 
0.750000 0.000000 0.0 
0.781250 0.000000 0.0 
0.812500 0.000000 0.0 
0.843750 0.000000 0.0 
0.875000 0.000000 0.0 
0.906250 0.000000 0.0 
0.937500 0.000000 0.0 
0.968750 0.000000 0.0 
1.000000 0.000000 0.0 
0.000000 0.112500 0.0 
0.031250 0.112500 0.0 
0.062500 0.112500 0.0 
0.093750 0.112500 0.0 
0.125000 0.112500 0.0 
0.156250 0.112500 0.0 
0.187500 0.112500 0.0 
0.218750 0.112500 0.0 
0.250000 0.112500 0.0 
0.281250 0.112500 0.0 
0.312500 0.112500 0.0 
0.343750 0.112500 0.0 
0.375000 0.112500 0.0 
0.406250 0.112500 0.0 
0.437500 0.112500 0.0 
0.468750 0.112500 0.0 
0.500000 0.112500 0.0 
0.531250 0.112500 0.0 
0.562500 0.112500 0.0 
0.593750 0.112500 0.0 
0.625000 0.112500 0.0 
0.656250 0.112500 0.0 
0.687500 0.112500 0.0 
0.718750 0.112500 0.0 
0.750000 0.112500 0.0 
0.781250 0.112500 0.0 
0.812500 0.112500 0.0 
0.843750 0.112500 0.0 
0.875000 0.112500 0.0 
0.906250 0.112500 0.0 
0.937500 0.112500 0.0 
0.968750 0.112500 0.0 
1.000000 0.112500 0.0 
0.000000 0.225000 0.0 
0.031250 0.225000 0.0 
0.062500 0.225000 0.0 
0.093750 0.225000 0.0 
0.125000 0.225000 0.0 
0.156250 0.225000 0.0 
0.187500 0.225000 0.0 
0.218750 0.225000 0.0 
0.250000 0.225000 0.0 
0.281250 0.225000 0.0 
0.312500 0.225000 0.0 
0.343750 0.225000 0.0 
0.375000 0.225000 0.0 
0.406250 0.225000 0.0 
0.437500 0.225000 0.0 
0.468750 0.225000 0.0 
0.500000 0.225000 0.0 
0.531250 0.225000 0.0 
0.562500 0.225000 0.0 
0.593750 0.225000 0.0 
0.625000 0.225000 0.0 
0.656250 0.225000 0.0 
0.687500 0.225000 0.0 
0.718750 0.225000 0.0 
0.750000 0.225000 0.0 
0.781250 0.225000 0.0 
0.812500 0.225000 0.0 
0.843750 0.225000 0.0 
0.875000 0.225000 0.0 
0.906250 0.225000 0.0 
0.937500 0.225000 0.0 
0.968750 0.225000 0.0 
1.000000 0.225000 0.0 
0.000000 0.337500 0.0 
0.031250 0.337500 0.0 
0.062500 0.337500 0.0 
0.093750 0.337500 0.0 
0.125000 0.337500 0.0 
0.156250 0.337500 0.0 
0.187500 0.337500 0.0 
0.218750 0.337500 0.0 
0.250000 0.337500 0.0 
0.281250 0.337500 0.0 
0.312500 0.337500 0.0 
0.343750 0.337500 0.0 
0.375000 0.337500 0.0 
0.406250 0.337500 0.0 
0.437500 0.337500 0.0 
0.468750 0.337500 0.0 
0.500000 0.337500 0.0 
0.531250 0.337500 0.0 
0.562500 0.337500 0.0 
0.593750 0.337500 0.0 
0.625000 0.337500 0.0 
0.656250 0.337500 0.0 
0.687500 0.337500 0.0 
0.718750 0.337500 0.0 
0.750000 0.337500 0.0 
0.781250 0.337500 0.0 
0.812500 0.337500 0.0 
0.843750 0.337500 0.0 
0.875000 0.337500 0.0 
0.906250 0.337500 0.0 
0.937500 0.337500 0.0 
0.968750 0.337500 0.0 
1.000000 0.337500 0.0 
0.000000 0.450000 0.0 
0.031250 0.450000 0.0 
0.062500 0.450000 0.0 
0.093750 0.450000 0.0 
0.125000 0.450000 0.0 
0.156250 0.450000 0.0 
0.187500 0.450000 0.0 
0.218750 0.450000 0.0 
0.250000 0.450000 0.0 
0.281250 0.450000 0.0 
0.312500 0.450000 0.0 
0.343750 0.450000 0.0 
0.375000 0.450000 0.0 
0.406250 0.450000 0.0 
0.437500 0.450000 0.0 
0.468750 0.450000 0.0 
0.500000 0.450000 0.0 
0.531250 0.450000 0.0 
0.562500 0.450000 0.0 
0.593750 0.450000 0.0 
0.625000 0.450000 0.0 
0.656250 0.450000 0.0 
0.687500 0.450000 0.0 
0.718750 0.450000 0.0 
0.750000 0.450000 0.0 
0.781250 0.450000 0.0 
0.812500 0.450000 0.0 
0.843750 0.450000 0.0 
0.875000 0.450000 0.0 
0.906250 0.450000 0.0 
0.937500 0.450000 0.0 
0.968750 0.450000 0.0 
1.000000 0.450000 0.0 
0.000000 0.562500 0.0 
0.031250 0.562500 0.0 
0.062500 0.562500 0.0 
0.093750 0.562500 0.0 
0.125000 0.562500 0.0 
0.156250 0.562500 0.0 
0.187500 0.562500 0.0 
0.218750 0.562500 0.0 
0.250000 0.562500 0.0 
0.281250 0.562500 0.0 
0.312500 0.562500 0.0 
0.343750 0.562500 0.0 
0.375000 0.562500 0.0 
0.406250 0.562500 0.0 
0.437500 0.562500 0.0 
0.468750 0.562500 0.0 
0.500000 0.562500 0.0 
0.531250 0.562500 0.0 
0.562500 0.562500 0.0 
0.593750 0.562500 0.0 
0.625000 0.562500 0.0 
0.656250 0.562500 0.0 
0.687500 0.562500 0.0 
0.718750 0.562500 0.0 
0.750000 0.562500 0.0 
0.781250 0.562500 0.0 
0.812500 0.562500 0.0 
0.843750 0.562500 0.0 
0.875000 0.562500 0.0 
0.906250 0.562500 0.0 
0.937500 0.562500 0.0 
0.968750 0.562500 0.0 
1.000000 0.562500 0.0 
0.000000 0.675000 0.0 
0.031250 0.675000 0.0 
0.062500 0.675000 0.0 
0.093750 0.675000 0.0 
0.125000 0.675000 0.0 
0.156250 0.675000 0.0 
0.187500 0.675000 0.0 
0.218750 0.675000 0.0 
0.250000 0.675000 0.0 
0.281250 0.675000 0.0 
0.312500 0.675000 0.0 
0.343750 0.675000 0.0 
0.375000 0.675000 0.0 
0.406250 0.675000 0.0 
0.437500 0.675000 0.0 
0.468750 0.675000 0.0 
0.500000 0.675000 0.0 
0.531250 0.675000 0.0 
0.562500 0.675000 0.0 
0.593750 0.675000 0.0 
0.625000 0.675000 0.0 
0.656250 0.675000 0.0 
0.687500 0.675000 0.0 
0.718750 0.675000 0.0 
0.750000 0.675000 0.0 
0.781250 0.675000 0.0 
0.812500 0.675000 0.0 
0.843750 0.675000 0.0 
0.875000 0.675000 0.0 
0.906250 0.675000 0.0 
0.937500 0.675000 0.0 
0.968750 0.675000 0.0 
1.000000 0.675000 0.0 
0.000000 0.787500 0.0 
0.031250 0.787500 0.0 
0.062500 0.787500 0.0 
0.093750 0.787500 0.0 
0.125000 0.787500 0.0 
0.156250 0.787500 0.0 
0.187500 0.787500 0.0 
0.218750 0.787500 0.0 
0.250000 0.787500 0.0 
0.281250 0.787500 0.0 
0.312500 0.787500 0.0 
0.343750 0.787500 0.0 
0.375000 0.787500 0.0 
0.406250 0.787500 0.0 
0.437500 0.787500 0.0 
0.468750 0.787500 0.0 
0.500000 0.787500 0.0 
0.531250 0.787500 0.0 
0.562500 0.787500 0.0 
0.593750 0.787500 0.0 
0.625000 0.787500 0.0 
0.656250 0.787500 0.0 
0.687500 0.787500 0.0 
0.718750 0.787500 0.0 
0.750000 0.787500 0.0 
0.781250 0.787500 0.0 
0.812500 0.787500 0.0 
0.843750 0.787500 0.0 
0.875000 0.787500 0.0 
0.906250 0.787500 0.0 
0.937500 0.787500 0.0 
0.968750 0.787500 0.0 
1.000000 0.787500 0.0 
0.000000 0.900000 0.0 
0.031250 0.900000 0.0 
0.062500 0.900000 0.0 
0.093750 0.900000 0.0 
0.125000 0.900000 0.0 
0.156250 0.900000 0.0 
0.187500 0.900000 0.0 
0.218750 0.900000 0.0 
0.250000 0.900000 0.0 
0.281250 0.900000 0.0 
0.312500 0.900000 0.0 
0.343750 0.900000 0.0 
0.375000 0.900000 0.0 
0.406250 0.900000 0.0 
0.437500 0.900000 0.0 
0.468750 0.900000 0.0 
0.500000 0.900000 0.0 
0.531250 0.900000 0.0 
0.562500 0.900000 0.0 
0.593750 0.900000 0.0 
0.625000 0.900000 0.0 
0.656250 0.900000 0.0 
0.687500 0.900000 0.0 
0.718750 0.900000 0.0 
0.750000 0.900000 0.0 
0.781250 0.900000 0.0 
0.812500 0.900000 0.0 
0.843750 0.900000 0.0 
0.875000 0.900000 0.0 
0.906250 0.900000 0.0 
0.937500 0.900000 0.0 
0.968750 0.900000 0.0 
1.000000 0.900000 0.0 
0.000000 0.916667 0.0 
0.031250 0.916667 0.0 
0.062500 0.916667 0.0 
0.093750 0.916667 0.0 
0.125000 0.916667 0.0 
0.156250 0.916667 0.0 
0.187500 0.916667 0.0 
0.218750 0.916667 0.0 
0.250000 0.916667 0.0 
0.281250 0.916667 0.0 
0.312500 0.916667 0.0 
0.343750 0.916667 0.0 
0.375000 0.916667 0.0 
0.406250 0.916667 0.0 
0.437500 0.916667 0.0 
0.468750 0.916667 0.0 
0.500000 0.916667 0.0 
0.531250 0.916667 0.0 
0.562500 0.916667 0.0 
0.593750 0.916667 0.0 
0.625000 0.916667 0.0 
0.656250 0.916667 0.0 
0.687500 0.916667 0.0 
0.718750 0.916667 0.0 
0.750000 0.916667 0.0 
0.781250 0.916667 0.0 
0.812500 0.916667 0.0 
0.843750 0.916667 0.0 
0.875000 0.916667 0.0 
0.906250 0.916667 0.0 
0.937500 0.916667 0.0 
0.968750 0.916667 0.0 
1.000000 0.916667 0.0 
0.000000 0.933333 0.0 
0.031250 0.933333 0.0 
0.062500 0.933333 0.0 
0.093750 0.933333 0.0 
0.125000 0.933333 0.0 
0.156250 0.933333 0.0 
0.187500 0.933333 0.0 
0.218750 0.933333 0.0 
0.250000 0.933333 0.0 
0.281250 0.933333 0.0 
0.312500 0.933333 0.0 
0.343750 0.933333 0.0 
0.375000 0.933333 0.0 
0.406250 0.933333 0.0 
0.437500 0.933333 0.0 
0.468750 0.933333 0.0 
0.500000 0.933333 0.0 
0.531250 0.933333 0.0 
0.562500 0.933333 0.0 
0.593750 0.933333 0.0 
0.625000 0.933333 0.0 
0.656250 0.933333 0.0 
0.687500 0.933333 0.0 
0.718750 0.933333 0.0 
0.750000 0.933333 0.0 
0.781250 0.933333 0.0 
0.812500 0.933333 0.0 
0.843750 0.933333 0.0 
0.875000 0.933333 0.0 
0.906250 0.933333 0.0 
0.937500 0.933333 0.0 
0.968750 0.933333 0.0 
1.000000 0.933333 0.0 
0.000000 0.950000 0.0 
0.031250 0.950000 0.0 
0.062500 0.950000 0.0 
0.093750 0.950000 0.0 
0.125000 0.950000 0.0 
0.156250 0.950000 0.0 
0.187500 0.950000 0.0 
0.218750 0.950000 0.0 
0.250000 0.950000 0.0 
0.281250 0.950000 0.0 
0.312500 0.950000 0.0 
0.343750 0.950000 0.0 
0.375000 0.950000 0.0 
0.406250 0.950000 0.0 
0.437500 0.950000 0.0 
0.468750 0.950000 0.0 
0.500000 0.950000 0.0 
0.531250 0.950000 0.0 
0.562500 0.950000 0.0 
0.593750 0.950000 0.0 
0.625000 0.950000 0.0 
0.656250 0.950000 0.0 
0.687500 0.950000 0.0 
0.718750 0.950000 0.0 
0.750000 0.950000 0.0 
0.781250 0.950000 0.0 
0.812500 0.950000 0.0 
0.843750 0.950000 0.0 
0.875000 0.950000 0.0 
0.906250 0.950000 0.0 
0.937500 0.950000 0.0 
0.968750 0.950000 0.0 
1.000000 0.950000 0.0 
0.000000 0.966667 0.0 
0.031250 0.966667 0.0 
0.062500 0.966667 0.0 
0.093750 0.966667 0.0 
0.125000 0.966667 0.0 
0.156250 0.966667 0.0 
0.187500 0.966667 0.0 
0.218750 0.966667 0.0 
0.250000 0.966667 0.0 
0.281250 0.966667 0.0 
0.312500 0.966667 0.0 
0.343750 0.966667 0.0 
0.375000 0.966667 0.0 
0.406250 0.966667 0.0 
0.437500 0.966667 0.0 
0.468750 0.966667 0.0 
0.500000 0.966667 0.0 
0.531250 0.966667 0.0 
0.562500 0.966667 0.0 
0.593750 0.966667 0.0 
0.625000 0.966667 0.0 
0.656250 0.966667 0.0 
0.687500 0.966667 0.0 
0.718750 0.966667 0.0 
0.750000 0.966667 0.0 
0.781250 0.966667 0.0 
0.812500 0.966667 0.0 
0.843750 0.966667 0.0 
0.875000 0.966667 0.0 
[...]
<PointData  Vectors="sigma"> 
<DataArray  type="Float64"  Name="sigma" NumberOfComponents="4" format="ascii"> 
-6.46163e-05   0.98504   -2.2704e-05   0.985073   
-0.00104723   0.975294   -1.4133e-06   0.975818   
-0.00406199   0.969511   5.74633e-06   0.971548   
-0.00885208   0.967358   1.27802e-05   0.971814   
-0.0151617   0.968393   1.76516e-05   0.976062   
-0.0226707   0.972116   1.36964e-05   0.983647   
-0.0310636   0.977947   -1.30487e-05   0.993843   
-0.0400232   0.985356   -3.94914e-05   1.00596   
-0.0491917   0.993848   -2.1498e-05   1.01933   
-0.0581135   1.00292   2.56077e-05   1.0332   
-0.0665317   1.01195   1.75428e-06   1.0468   
-0.074302   1.02039   -3.74518e-05   1.0595   
-0.0810709   1.02782   -4.31818e-06   1.07066   
-0.0865087   1.03401   3.08862e-05   1.07987   
-0.0905165   1.03869   3.33428e-05   1.08678   
-0.0929776   1.04161   1.62982e-05   1.09108   
-0.0938143   1.0426   8.34002e-17   1.09253   
-0.0929776   1.04161   -1.62982e-05   1.09108   
-0.0905165   1.03869   -3.33428e-05   1.08678   
-0.0865087   1.03401   -3.08862e-05   1.07987   
-0.0810709   1.02782   4.31818e-06   1.07066   
-0.074302   1.02039   3.74518e-05   1.0595   
-0.0665317   1.01195   -1.75428e-06   1.0468   
-0.0581135   1.00292   -2.56077e-05   1.0332   
-0.0491917   0.993848   2.1498e-05   1.01933   
-0.0400232   0.985356   3.94914e-05   1.00596   
-0.0310636   0.977947   1.30487e-05   0.993843   
-0.0226707   0.972116   -1.36964e-05   0.983647   
-0.0151617   0.968393   -1.76516e-05   0.976062   
-0.00885208   0.967358   -1.27802e-05   0.971814   
-0.00406199   0.969511   -5.74633e-06   0.971548   
-0.00104723   0.975294   1.4133e-06   0.975818   
-6.46163e-05   0.98504   2.2704e-05   0.985073   
-2.53675e-05   0.971085   2.16764e-05   0.971097   
-0.00116738   0.962221   0.00773916   0.962898   
-0.00456022   0.957806   0.0147896   0.960435   
-0.00990985   0.957387   0.0209281   0.963063   
-0.0168987   0.960426   0.0259853   0.97003   
-0.0251755   0.966329   0.0298479   0.980523   
-0.0344057   0.974467   0.0324432   0.993708   
-0.0442503   0.984203   0.0337358   1.00875   
-0.0542775   0.994921   0.0337499   1.02481   
-0.0639864   1.00604   0.032556   1.04104   
-0.0731179   1.01696   0.0302234   1.05672   
-0.0815613   1.02711   0.0268701   1.07124   
-0.088917   1.03606   0.0226281   1.08396   
-0.0948059   1.04344   0.0176319   1.09436   
-0.0991064   1.04896   0.012068   1.10206   
-0.101741   1.05236   0.00612877   1.10679   
-0.102633   1.05351   7.87715e-14   1.10839   
-0.101741   1.05236   -0.00612877   1.10679   
-0.0991064   1.04896   -0.012068   1.10206   
-0.0948059   1.04344   -0.0176319   1.09436   
-0.088917   1.03606   -0.0226281   1.08396   
-0.0815613   1.02711   -0.0268701   1.07124   
-0.0731179   1.01696   -0.0302234   1.05672   
-0.0639864   1.00604   -0.032556   1.04104   
-0.0542775   0.994921   -0.0337499   1.02481   
-0.0442503   0.984203   -0.0337358   1.00875   
-0.0344057   0.974467   -0.0324432   0.993708   
-0.0251755   0.966329   -0.0298479   0.980523   
-0.0168987   0.960426   -0.0259853   0.97003   
-0.00990985   0.957387   -0.0209281   0.963063   
-0.00456022   0.957806   -0.0147896   0.960435   
-0.00116738   0.962221   -0.00773916   0.962898   
-2.53675e-05   0.971085   -2.16764e-05   0.971097   
0.000103584   0.925199   -6.4222e-06   0.925148   
-0.00155432   0.9198   0.0173527   0.921069   
-0.00605132   0.920239   0.0329291   0.92504   
-0.0130367   0.925717   0.0463227   0.935749   
-0.0220567   0.935397   0.0572216   0.951792   
-0.032639   0.948405   0.0654237   0.971768   
-0.0442469   0.963868   0.0708382   0.994334   
-0.0563674   0.980888   0.0734597   1.01823   
-0.0686387   0.998605   0.073325   1.0424   
-0.0808044   1.01624   0.0705492   1.06598   
-0.0923122   1.03313   0.0653831   1.08815   
-0.102507   1.04862   0.0580399   1.10802   
-0.111214   1.06218   0.0487789   1.1251   
-0.118395   1.07326   0.0379823   1.13899   
-0.123759   1.08144   0.0260035   1.14921   
-0.127056   1.08645   0.0132093   1.15545   
-0.12816   1.08813   1.22223e-13   1.15755   
-0.127056   1.08645   -0.0132093   1.15545   
-0.123759   1.08144   -0.0260035   1.14921   
-0.118395   1.07326   -0.0379823   1.13899   
-0.111214   1.06218   -0.0487789   1.1251   
-0.102507   1.04862   -0.0580399   1.10802   
-0.0923122   1.03313   -0.0653831   1.08815   
-0.0808044   1.01624   -0.0705492   1.06598   
-0.0686387   0.998605   -0.073325   1.0424   
-0.0563674   0.980888   -0.0734597   1.01823   
-0.0442469   0.963868   -0.0708382   0.994334   
-0.032639   0.948405   -0.0654237   0.971768   
-0.0220567   0.935397   -0.0572216   0.951792   
-0.0130367   0.925717   -0.0463227   0.935749   
-0.00605132   0.920239   -0.0329291   0.92504   
-0.00155432   0.9198   -0.0173527   0.921069   
0.000103584   0.925199   6.4222e-06   0.925148   
-8.19527e-05   0.836335   9.24988e-05   0.836376   
-0.00221695   0.839304   0.0306085   0.842086   
-0.00833822   0.850198   0.0574635   0.860175   
-0.0177001   0.867596   0.0801112   0.887494   
-0.0296159   0.890108   0.0982224   0.921126   
-0.0434356   0.916417   0.111622   0.958587   
-0.0586129   0.945271   0.120235   0.997872   
-0.0745658   0.975555   0.124117   1.03741   
-0.0905391   1.00615   0.123484   1.07581   
-0.105752   1.03589   0.118592   1.11175   
-0.119952   1.06373   0.109633   1.14436   
-0.133105   1.08891   0.0970986   1.17331   
-0.144626   1.11049   0.081571   1.19778   
-0.153792   1.12788   0.0634831   1.21709   
-0.160404   1.14066   0.0434169   1.23104   
-0.164408   1.1485   0.0220353   1.2395   
-0.165762   1.15113   1.29937e-13   1.24233   
-0.164408   1.1485   -0.0220353   1.2395   
-0.160404   1.14066   -0.0434169   1.23104   
-0.153792   1.12788   -0.0634831   1.21709   
-0.144626   1.11049   -0.081571   1.19778   
-0.133105   1.08891   -0.0970986   1.17331   
-0.119952   1.06373   -0.109633   1.14436   
-0.105752   1.03589   -0.118592   1.11175   
-0.0905391   1.00615   -0.123484   1.07581   
-0.0745658   0.975555   -0.124117   1.03741   
-0.0586129   0.945271   -0.120235   0.997872   
-0.0434356   0.916417   -0.111622   0.958587   
-0.0296159   0.890108   -0.0982224   0.921126   
-0.0177001   0.867596   -0.0801112   0.887494   
-0.00833822   0.850198   -0.0574635   0.860175   
-0.00221695   0.839304   -0.0306085   0.842086   
-8.19527e-05   0.836335   -9.24988e-05   0.836376   
0.000134588   0.686791   -5.88573e-05   0.686723   
-0.00287727   0.70755   0.048333   0.713919   
-0.0107043   0.73813   0.0897104   0.759602   
-0.0224571   0.776385   0.123896   0.816556   
-0.0372372   0.820422   0.1508   0.879347   
-0.0542574   0.868448   0.170432   0.944143   
-0.0726788   0.91876   0.18292   1.00824   
-0.0918479   0.969615   0.188406   1.06964   
-0.111391   1.01958   0.187005   1.12714   
-0.130915   1.06755   0.179095   1.18016   
-0.149355   1.11221   0.165486   1.22784   
-0.165513   1.15191   0.146604   1.26863   
-0.17907   1.18601   0.122923   1.30246   
-0.190214   1.2137   0.0954963   1.32946   
-0.198604   1.23408   0.0652754   1.34918   
-0.203816   1.24649   0.0331329   1.36111   
-0.205562   1.25066   1.12757e-13   1.3651   
-0.203816   1.24649   -0.0331329   1.36111   
-0.198604   1.23408   -0.0652754   1.34918   
-0.190214   1.2137   -0.0954963   1.32946   
-0.17907   1.18601   -0.122923   1.30246   
-0.165513   1.15191   -0.146604   1.26863   
-0.149355   1.11221   -0.165486   1.22784   
-0.130915   1.06755   -0.179095   1.18016   
-0.111391   1.01958   -0.187005   1.12714   
-0.0918479   0.969615   -0.188406   1.06964   
-0.0726788   0.91876   -0.18292   1.00824   
-0.0542574   0.868448   -0.170432   0.944143   
-0.0372372   0.820422   -0.1508   0.879347   
-0.0224571   0.776385   -0.123896   0.816556   
-0.0107043   0.73813   -0.0897104   0.759602   
-0.00287727   0.70755   -0.048333   0.713919   
0.000134588   0.686791   5.88573e-05   0.686723   
-0.000247013   0.46002   0.000313651   0.460143   
-0.00294266   0.513424   0.0688524   0.528531   
-0.010358   0.57626   0.126185   0.621225   
-0.0215432   0.64594   0.173073   0.722137   
-0.0360164   0.720554   0.210131   0.823961   
-0.0534239   0.798634   0.237635   0.923443   
-0.07345   0.878826   0.255542   1.01891   
-0.0952648   0.959797   0.263849   1.10931   
-0.117553   1.03934   0.262837   1.1931   
-0.139125   1.11458   0.25265   1.26815   
-0.159552   1.18359   0.233186   1.33354   
-0.178582   1.24567   0.205804   1.39036   
-0.195379   1.29816   0.172331   1.4374   
-0.208579   1.33941   0.133708   1.47328   
-0.217775   1.36898   0.0911647   1.4982   
-0.223116   1.38688   0.0461559   1.51295   
-0.224895   1.39284   7.42261e-14   1.51784   
-0.223116   1.38688   -0.0461559   1.51295   
-0.217775   1.36898   -0.0911647   1.4982   
-0.208579   1.33941   -0.133708   1.47328   
-0.195379   1.29816   -0.172331   1.4374   
-0.178582   1.24567   -0.205804   1.39036   
-0.159552   1.18359   -0.233186   1.33354   
-0.139125   1.11458   -0.25265   1.26815   
-0.117553   1.03934   -0.262837   1.1931   
-0.0952648   0.959797   -0.263849   1.10931   
-0.07345   0.878826   -0.255542   1.01891   
-0.0534239   0.798634   -0.237635   0.923443   
-0.0360164   0.720554   -0.210131   0.823961   
-0.0215432   0.64594   -0.173073   0.722137   
-0.010358   0.57626   -0.126185   0.621225   
-0.00294266   0.513424   -0.0688524   0.528531   
-0.000247013   0.46002   -0.000313651   0.460143   
-0.000701594   0.155226   -0.000509276   0.15558   
-0.000468964   0.261999   0.0808007   0.297242   
-0.000470037   0.368227   0.148328   0.449185   
-0.00187738   0.475259   0.20592   0.594959   
-0.00624852   0.585158   0.255182   0.735839   
-0.0151435   0.699282   0.295871   0.873174   
-0.0294317   0.817498   0.326494   1.00649   
-0.0494734   0.93766   0.344643   1.13331   
-0.0742888   1.05753   0.34787   1.2512   
-0.101011   1.17465   0.335553   1.35884   
-0.125968   1.28324   0.309631   1.45322   
-0.146378   1.37546   0.271593   1.52838   
-0.160381   1.45088   0.223578   1.58538   
-0.168881   1.50974   0.169852   1.62769   
-0.173488   1.55148   0.113737   1.65685   
-0.175677   1.57589   0.0569218   1.67358   
-0.176251   1.58393   1.48452e-14   1.67901   
-0.175677   1.57589   -0.0569218   1.67358   
-0.173488   1.55148   -0.113737   1.65685   
-0.168881   1.50974   -0.169852   1.62769   
-0.160381   1.45088   -0.223578   1.58538   
-0.146378   1.37546   -0.271593   1.52838   
-0.125968   1.28324   -0.309631   1.45322   
-0.101011   1.17465   -0.335553   1.35884   
-0.0742888   1.05753   -0.34787   1.2512   
-0.0494734   0.93766   -0.344643   1.13331   
-0.0294317   0.817498   -0.326494   1.00649   
-0.0151435   0.699282   -0.295871   0.873174   
-0.00624852   0.585158   -0.255182   0.735839   
-0.00187738   0.475259   -0.20592   0.594959   
-0.000470037   0.368227   -0.148328   0.449185   
-0.000468964   0.261999   -0.0808007   0.297242   
-0.000701594   0.155226   0.000509276   0.15558   
-3.06798e-05   -0.128724   -0.000956027   0.128719   
0.00901576   0.0220999   0.0529303   0.0936766   
0.0300826   0.146853   0.107253   0.229266   
0.0565462   0.260817   0.166992   0.374344   
0.0817612   0.377555   0.233454   0.53091   
0.0995613   0.509635   0.304307   0.704775   
0.104018   0.667184   0.372861   0.896455   
0.0915748   0.854466   0.427974   1.09988   
0.0625288   1.06058   0.455889   1.29843   
0.0241907   1.26195   0.445703   1.46919   
-0.0093216   1.43966   0.396266   1.59913   
-0.0236407   1.58754   0.319483   1.69251   
-0.0182974   1.6893   0.234275   1.74632   
-0.000214593   1.74373   0.156178   1.7647   
0.020719   1.76521   0.0924402   1.76223   
0.0366974   1.77128   0.0422909   1.75475   
0.04249   1.77207   -6.40513e-14   1.75121   
0.0366974   1.77128   -0.0422909   1.75475   
0.020719   1.76521   -0.0924402   1.76223   
-0.000214593   1.74373   -0.156178   1.7647   
-0.0182974   1.6893   -0.234275   1.74632   
-0.0236407   1.58754   -0.319483   1.69251   
-0.0093216   1.43966   -0.396266   1.59913   
0.0241907   1.26195   -0.445703   1.46919   
0.0625288   1.06058   -0.455889   1.29843   
0.0915748   0.854466   -0.427974   1.09988   
0.104018   0.667184   -0.372861   0.896455   
0.0995613   0.509635   -0.304307   0.704775   
0.0817612   0.377555   -0.233454   0.53091   
0.0565462   0.260817   -0.166992   0.374344   
0.0300826   0.146853   -0.107253   0.229266   
0.00901576   0.0220999   -0.0529303   0.0936766   
-3.06798e-05   -0.128724   0.000956027   0.128719   
-0.00109405   -0.157879   -0.00183242   0.157366   
0.0107996   -0.0621554   -0.0312399   0.0870573   
0.0382926   0.000969316   -0.0264357   0.0593859   
0.0800135   0.0504212   0.00435212   0.0704763   
0.137514   0.100693   0.0613304   0.162747   
0.210166   0.168955   0.150716   0.324582   
0.294793   0.287707   0.279784   0.565421   
0.36919   0.504866   0.451817   0.904   
0.3825   0.889618   0.625478   1.33083   
0.289229   1.42117   0.679037   1.75374   
0.202234   1.91776   0.500877   2.02077   
0.244492   2.12065   0.214887   2.04377   
0.378529   2.093   0.0191488   1.93203   
0.489838   1.97819   -0.0576117   1.78722   
0.55795   1.87953   -0.0622446   1.67537   
0.590123   1.81656   -0.0367229   1.60629   
0.60042   1.79701   -1.0008e-13   1.58455   
0.590123   1.81656   0.0367229   1.60629   
0.55795   1.87953   0.0622446   1.67537   
0.489838   1.97819   0.0576117   1.78722   
0.378529   2.093   -0.0191488   1.93203   
0.244492   2.12065   -0.214887   2.04377   
0.202234   1.91776   -0.500877   2.02077   
0.289229   1.42117   -0.679037   1.75374   
0.3825   0.889618   -0.625478   1.33083   
0.36919   0.504866   -0.451817   0.904   
0.294793   0.287707   -0.279784   0.565421   
0.210166   0.168955   -0.150716   0.324582   
0.137514   0.100693   -0.0613304   0.162747   
0.0800135   0.0504212   -0.00435212   0.0704763   
0.0382926   0.000969316   0.0264357   0.0593859   
0.0107996   -0.0621554   0.0312399   0.0870573   
-0.00109405   -0.157879   0.00183242   0.157366   
-0.000271099   -0.122608   -0.000238606   0.122473   
0.00646571   -0.0547935   -0.0396644   0.0901011   
0.0269196   -0.0061813   -0.0423386   0.0794162   
0.0616125   0.0311982   -0.0197925   0.0634228   
0.115678   0.0672942   0.026938   0.110916   
0.192439   0.116646   0.10595   0.248733   
0.295025   0.209398   0.22715   0.473182   
0.401284   0.395863   0.412658   0.818379   
0.447817   0.788479   0.638581   1.30096   
0.351831   1.44073   0.751142   1.8399   
0.261674   2.10616   0.517892   2.18126   
0.322527   2.26461   0.140074   2.13564   
0.496818   2.15205   -0.0559411   1.95407   
0.615556   1.98473   -0.104582   1.76894   
0.67806   1.86534   -0.0842807   1.64188   
0.701798   1.7966   -0.0455666   1.57025   
0.708825   1.7748   -1.01415e-13   1.54736   
0.701798   1.7966   0.0455666   1.57025   
0.67806   1.86534   0.0842807   1.64188   
0.615556   1.98473   0.104582   1.76894   
0.496818   2.15205   0.0559411   1.95407   
0.322527   2.26461   -0.140074   2.13564   
0.261674   2.10616   -0.517892   2.18126   
0.351831   1.44073   -0.751142   1.8399   
0.447817   0.788479   -0.638581   1.30096   
0.401284   0.395863   -0.412658   0.818379   
0.295025   0.209398   -0.22715   0.473182   
0.192439   0.116646   -0.10595   0.248733   
0.115678   0.0672942   -0.026938   0.110916   
0.0616125   0.0311982   0.0197925   0.0634228   
0.0269196   -0.0061813   0.0423386   0.0794162   
0.00646571   -0.0547935   0.0396644   0.0901011   
-0.000271099   -0.122608   0.000238606   0.122473   
0.000175434   -0.0851688   -0.000189936   0.0852573   
0.00207067   -0.0434992   -0.0421969   0.0856054   
0.0114319   -0.00797926   -0.0512156   0.0903034   
0.0334876   0.0185348   -0.0373639   0.0709398   
0.0764705   0.0434593   -0.00303954   0.0666394   
0.144621   0.0724197   0.0590366   0.161686   
0.253712   0.136451   0.161489   0.355817   
0.396993   0.271342   0.339475   0.68501   
0.532507   0.653844   0.624786   1.23854   
0.438455   1.44135   0.831974   1.92725   
0.335929   2.37653   0.523439   2.40507   
0.446166   2.43898   0.0344136   2.25013   
0.677063   2.19984   -0.136766   1.9658   
0.760687   1.96819   -0.139637   1.73601   
0.799563   1.84172   -0.0958491   1.60818   
0.803251   1.76828   -0.0480194   1.53577   
0.807216   1.75028   -8.42342e-14   1.51731   
0.803251   1.76828   0.0480194   1.53577   
0.799563   1.84172   0.0958491   1.60818   
0.760687   1.96819   0.139637   1.73601   
0.677063   2.19984   0.136766   1.9658   
0.446166   2.43898   -0.0344136   2.25013   
0.335929   2.37653   -0.523439   2.40507   
0.438455   1.44135   -0.831974   1.92725   
0.532507   0.653844   -0.624786   1.23854   
0.396993   0.271342   -0.339475   0.68501   
0.253712   0.136451   -0.161489   0.355817   
0.144621   0.0724197   -0.0590366   0.161686   
0.0764705   0.0434593   0.00303954   0.0666394   
0.0334876   0.0185348   0.0373639   0.0709398   
0.0114319   -0.00797926   0.0512156   0.0903034   
0.00207067   -0.0434992   0.0421969   0.0856054   
0.000175434   -0.0851688   0.000189936   0.0852573   
0.000546245   -0.0498476   -0.00052676   0.0501313   
-0.00545364   -0.0309366   -0.0424622   0.0789127   
-0.0102981   -0.00840841   -0.0564454   0.0982264   
-0.00574862   0.00656758   -0.0502342   0.0876604   
0.0164527   0.0211673   -0.0282994   0.0526598   
0.0685775   0.0338902   0.0156231   0.0652653   
0.167672   0.0712465   0.0929389   0.217157   
0.33405   0.153234   0.242354   0.509988   
0.588713   0.438789   0.558389   1.10281   
0.537466   1.38878   0.954164   2.04999   
0.482589   2.77042   0.530656   2.72323   
0.625525   2.5696   -0.137228   2.33308   
0.903966   2.20574   -0.19897   1.95123   
0.916423   1.94877   -0.16161   1.71172   
0.9178   1.81244   -0.0961302   1.57847   
0.89904   1.74599   -0.0473328   1.51452   
0.894225   1.72315   -6.85549e-14   1.49265   
0.89904   1.74599   0.0473328   1.51452   
0.9178   1.81244   0.0961302   1.57847   
0.916423   1.94877   0.16161   1.71172   
0.903966   2.20574   0.19897   1.95123   
0.625525   2.5696   0.137228   2.33308   
0.482589   2.77042   -0.530656   2.72323   
0.537466   1.38878   -0.954164   2.04999   
0.588713   0.438789   -0.558389   1.10281   
0.33405   0.153234   -0.242354   0.509988   
0.167672   0.0712465   -0.0929389   0.217157   
0.0685775   0.0338902   -0.0156231   0.0652653   
0.0164527   0.0211673   0.0282994   0.0526598   
-0.00574862   0.00656758   0.0502342   0.0876604   
-0.0102981   -0.00840841   0.0564454   0.0982264   
-0.00545364   -0.0309366   0.0424622   0.0789127   
0.000546245   -0.0498476   0.00052676   0.0501313   
0.00122534   -0.0169956   -0.000671723   0.0176786   
-0.0129645   -0.0173614   -0.0347021   0.0621057   
-0.0356912   -0.00539968   -0.0498632   0.0925706   
-0.0518684   0.00229659   -0.0504986   0.102299   
-0.060221   0.00684277   -0.0368688   0.0903515   
-0.0390258   0.0163087   -0.0176672   0.0579813   
0.0342664   0.0158455   0.0338633   0.0657454   
0.161576   0.0876428   0.118014   0.247808   
0.614594   0.258331   0.384662   0.854158   
0.644556   1.19178   0.992229   2.00529   
0.809788   3.43046   0.457192   3.20514   
0.958988   2.70461   -0.28238   2.42489   
1.20475   2.20564   -0.2136   1.94831   
1.04912   1.90873   -0.141201   1.67369   
1.02392   1.78281   -0.0792193   1.55569   
0.970764   1.72347   -0.0363363   1.49787   
0.965268   1.69938   -2.06832e-14   1.47624   
0.970764   1.72347   0.0363363   1.49787   
1.02392   1.78281   0.0792193   1.55569   
1.04912   1.90873   0.141201   1.67369   
1.20475   2.20564   0.2136   1.94831   
0.958988   2.70461   0.28238   2.42489   
0.809788   3.43046   -0.457192   3.20514   
0.644556   1.19178   -0.992229   2.00529   
0.614594   0.258331   -0.384662   0.854158   
0.161576   0.0876428   -0.118014   0.247808   
0.0342664   0.0158455   -0.0338633   0.0657454   
-0.0390258   0.0163087   0.0176672   0.0579813   
-0.060221   0.00684277   0.0368688   0.0903515   
-0.0518684   0.00229659   0.0504986   0.102299   